chemcompute.org
{'UTCtimestamp': '2022-10-07T21:12:30.785201', 'cluster': 'jetstream2', 'clusterJobNumber': '121626', 'status': 'RUNNING', 'nodeList': 'chemcompute-node-0'}
----- GAMESS execution script 'rungms' -----
This job is running on host chemcompute-node-0.novalocal
under operating system Linux at Fri Oct 7 21:12:34 UTC 2022
SLURM has assigned the following compute nodes to this run:
Available scratch disk space (Kbyte units) at beginning of the job is
Filesystem     1K-blocks     Used Available Use% Mounted on
/dev/sda1       62903276 11551344  51351932  19% /
GAMESS temporary binary files will be written to /scratch/121626
GAMESS supplementary output files will be written to /data/slurm/46/461734
Copying input file 461734.inp to your run's scratch directory...
The generated host list is
chemcompute-node-0.novalocal

 Distributed Data Interface kickoff program.
 Initiating 1 compute processes on 1 nodes to run the following command:
 /data/gamess-2019R1-avx2-ddi/gamess.00.x 461734 

          ******************************************************
          *         GAMESS VERSION = 30 JUN 2019 (R1)          *
          *             FROM IOWA STATE UNIVERSITY             *
          * M.W.SCHMIDT, K.K.BALDRIDGE, J.A.BOATZ, S.T.ELBERT, *
          *   M.S.GORDON, J.H.JENSEN, S.KOSEKI, N.MATSUNAGA,   *
          *          K.A.NGUYEN, S.J.SU, T.L.WINDUS,           *
          *       TOGETHER WITH M.DUPUIS, J.A.MONTGOMERY       *
          *         J.COMPUT.CHEM.  14, 1347-1363(1993)        *
          **************** 64 BIT INTEL VERSION ****************

  SINCE 1993, STUDENTS AND POSTDOCS WORKING AT IOWA STATE UNIVERSITY
  AND ALSO IN THEIR VARIOUS JOBS AFTER LEAVING ISU HAVE MADE IMPORTANT
  CONTRIBUTIONS TO THE CODE:
     IVANA ADAMOVIC, CHRISTINE AIKENS, YURI ALEXEEV, POOJA ARORA,
     ANDREY ASADCHEV, ROB BELL, PRADIPTA BANDYOPADHYAY, JONATHAN BENTZ,
     COLLEEN BERTONI, BRETT BODE, KURT BRORSEN, CALEB CARLIN, GALINA CHABAN,
     WEI CHEN, CHEOL HO CHOI, PAUL DAY, ALBERT DEFUSCO, NUWAN DESILVA,
     TIM DUDLEY, DMITRI FEDOROV, ALEX FINDLATER, GRAHAM FLETCHER, 
     MARK FREITAG, KURT GLAESEMANN, ANASTASIA GUNINA,
     DAN KEMP, GRANT MERRILL, NORIYUKI MINEZAWA, JONATHAN MULLIN,
     TAKESHI NAGATA, SEAN NEDD, HEATHER NETZLOFF, BOSILJKA NJEGIC, RYAN OLSON,
     MIKE PAK, BUU PHAM,
     SPENCER PRUITT, LUKE ROSKOP, JIM SHOEMAKER, LYUDMILA SLIPCHENKO,
     TONY SMITH, SAROM SOK LEANG, JIE SONG, TETSUYA TAKETSUGU, SIMON WEBB,
     PENG XU, SOOHAENG YOO, FEDERICO ZAHARIEV

  ADDITIONAL CODE HAS BEEN PROVIDED BY COLLABORATORS IN OTHER GROUPS:
     IOWA STATE UNIVERSITY:
          JOE IVANIC, AARON WEST, LAIMUTIS BYTAUTAS, KLAUS RUEDENBERG
     UNIVERSITY OF TOKYO: KIMIHIKO HIRAO, TAKAHITO NAKAJIMA,
          TAKAO TSUNEDA, MUNEAKI KAMIYA, SUSUMU YANAGISAWA,
          KIYOSHI YAGI, MAHITO CHIBA, SEIKEN TOKURA, NAOAKI KAWAKAMI
     UNIVERSITY OF AARHUS: FRANK JENSEN
     UNIVERSITY OF IOWA: VISVALDAS KAIRYS, HUI LI
     NATIONAL INST. OF STANDARDS AND TECHNOLOGY: WALT STEVENS, DAVID GARMER
     UNIVERSITY OF PISA: BENEDETTA MENNUCCI, JACOPO TOMASI
     UNIVERSITY OF MEMPHIS: HENRY KURTZ, PRAKASHAN KORAMBATH
     UNIVERSITY OF ALBERTA: TOBY ZENG, MARIUSZ KLOBUKOWSKI
     UNIVERSITY OF NEW ENGLAND: MARK SPACKMAN
     MIE UNIVERSITY: HIROAKI UMEDA
     NAT. INST. OF ADVANCED INDUSTRIAL SCIENCE AND TECHNOLOGY: KAZUO KITAURA
     MICHIGAN STATE UNIVERSITY:
          KAROL KOWALSKI, MARTA WLOCH, JEFFREY GOUR, JESSE LUTZ,
          WEI LI, JUN SHEN, J. EMILIANO DEUSTUA, PIOTR PIECUCH
     UNIVERSITY OF MINNESOTA:
          YINAN SHU
     UNIVERSITY OF SILESIA: MONIKA MUSIAL, STANISLAW KUCHARSKI
     FACULTES UNIVERSITAIRES NOTRE-DAME DE LA PAIX:
          OLIVIER QUINET, BENOIT CHAMPAGNE
     UNIVERSITY OF CALIFORNIA - SANTA BARBARA: BERNARD KIRTMAN
     INSTITUTE FOR MOLECULAR SCIENCE:
          KAZUYA ISHIMURA, MICHIO KATOUDA, AND SHIGERU NAGASE
     UNIVERSITY OF NOTRE DAME: ANNA POMOGAEVA, DAN CHIPMAN
     KYUSHU UNIVERSITY:
          HARUYUKI NAKANO,
          FENG LONG GU, JACEK KORCHOWIEC, MARCIN MAKOWSKI, AND YURIKO AOKI,
          HIROTOSHI MORI AND EISAKU MIYOSHI
     PENNSYLVANIA STATE UNIVERSITY:
          TZVETELIN IORDANOV, CHET SWALINA, JONATHAN SKONE,
          SHARON HAMMES-SCHIFFER
     WASEDA UNIVERSITY:
          MASATO KOBAYASHI, TOMOKO AKAMA, TSUGUKI TOUMA,
          TAKESHI YOSHIKAWA, YASUHIRO IKABATA, JUNJI SEINO,
          YUYA NAKAJIMA, HIROMI NAKAI
     NANJING UNIVERSITY: SHUHUA LI
     UNIVERSITY OF NEBRASKA:
          PEIFENG SU, DEJUN SI, NANDUN THELLAMUREGE, YALI WANG, HUI LI
     UNIVERSITY OF ZURICH: ROBERTO PEVERATI, KIM BALDRIDGE
     N. COPERNICUS UNIVERSITY AND JACKSON STATE UNIVERSITY:
          MARIA BARYSZ
     UNIVERSITY OF COPENHAGEN: Jimmy Kromann, CASPER STEINMANN
     TOKYO INSTITUTE OF TECHNOLOGY: HIROYA NAKATA
     NAGOYA UNIVERSITY: YOSHIO NISHIMOTO, STEPHAN IRLE
     MOSCOW STATE UNIVERSITY: VLADIMIR MIRONOV
     A.N.NESMEYANOV INSTITUTE OF ORGANOELEMENT COMPOUNDS OF RUSSIAN ACADEMY OF SCIENCES:
          IGOR S. GERASIMOV

 EXECUTION OF GAMESS BEGUN Fri Oct  7 21:12:34 2022

            ECHO OF THE FIRST FEW INPUT CARDS -
 INPUT CARD>!                                                                               
 INPUT CARD>!   GAMESS Calculation input file                                               
 INPUT CARD>!                                                                               
 INPUT CARD>!                                                                               
 INPUT CARD> $CONTRL SCFTYP=RHF MAXIT=200 RUNTYP=OPTIMIZE                                   
 INPUT CARD>         COORD=UNIQUE MULT=1                                                    
 INPUT CARD>         ICHARG=0                                                               
 INPUT CARD>         DFTTYP=B3LYP                                                           
 INPUT CARD>         MOLPLT=.FALSE. PLTORB=.FALSE.  $END                                    
 INPUT CARD> $SYSTEM TIMLIM=2879 MWORDS=250  $END                                           
 INPUT CARD>                                                                                
 INPUT CARD> $FORCE METHOD=SEMINUM NVIB=2 $END                                              
 INPUT CARD> $STATPT OPTTOL=0.0005 NSTEP=999 $END                                           
 INPUT CARD> $STATPT IHREP=0 HSSEND=.TRUE.  $END                                            
 INPUT CARD>                                                                                
 INPUT CARD> $DFT    METHOD=GRID  NLEB=590  $END                                            
 INPUT CARD>                                                                                
 INPUT CARD> $BASIS  GBASIS=N21 NGAUSS=3 $END                                               
 INPUT CARD>                                                                                
 INPUT CARD> $SCF    DIRSCF=.T. $END                                                        
 INPUT CARD> $GUESS  GUESS=HUCKEL  $END                                                     
 INPUT CARD>                                                                                
 INPUT CARD> $DATA                                                                          
 INPUT CARD>                                                                                
 INPUT CARD>  C1                                                                            
 INPUT CARD>O     8.0    -0.42638     1.65449     0.17843                                   
 INPUT CARD>C     6.0     0.28250     0.66852     0.01279                                   
 INPUT CARD>C     6.0    -0.29959    -0.69060    -0.09631                                   
 INPUT CARD>C     6.0     0.45745    -1.80133    -0.11717                                   
 INPUT CARD>H     1.0     1.37922     0.73836    -0.05593                                   
 INPUT CARD>H     1.0    -1.37853    -0.73729    -0.14598                                   
 INPUT CARD>H     1.0     1.53740    -1.77397    -0.05122                                   
 INPUT CARD>H     1.0    -0.01455    -2.77389    -0.18900                                   
 INPUT CARD> $END                                                                           
 INPUT CARD>                                                                                
 INPUT CARD>                                                                                
 INPUT CARD>! Customizations after this line are persisted when using Do More Calculations  
  250000000 WORDS OF MEMORY AVAILABLE

     BASIS OPTIONS
     -------------
     GBASIS=N21          IGAUSS=       3      POLAR=NONE    
     NDFUNC=       0     NFFUNC=       0     DIFFSP=       F
     NPFUNC=       0      DIFFS=       F     BASNAM=        


     RUN TITLE
     ---------
                                                                                 

 THE POINT GROUP OF THE MOLECULE IS C1      
 THE ORDER OF THE PRINCIPAL AXIS IS     0

 ATOM      ATOMIC                      COORDINATES (BOHR)
           CHARGE         X                   Y                   Z
 O           8.0    -0.8057413666        3.1265327494        0.3371838080
 C           6.0     0.5338475915        1.2633196173        0.0241695954
 C           6.0    -0.5661430087       -1.3050447671       -0.1819995099
 C           6.0     0.8644551531       -3.4040201135       -0.2214191940
 H           1.0     2.6063478768        1.3952980803       -0.1056923745
 H           1.0    -2.6050439659       -1.3932760735       -0.2758621997
 H           1.0     2.9052647335       -3.3523172104       -0.0967917651
 H           1.0    -0.0274955131       -5.2418920201       -0.3571582117

          INTERNUCLEAR DISTANCES (ANGS.)
          ------------------------------

                1 O          2 C          3 C          4 C          5 H     

   1 O       0.0000000    1.2255955 *  2.3645306 *  3.5792774    2.0382370 *
   2 C       1.2255955 *  0.0000000    1.4825447 *  2.4794467 *  1.1010880 *
   3 C       2.3645306 *  1.4825447 *  0.0000000    1.3443459 *  2.2049853 *
   4 C       3.5792774    2.4794467 *  1.3443459 *  0.0000000    2.7024869 *
   5 H       2.0382370 *  1.1010880 *  2.2049853 *  2.7024869 *  0.0000000  
   6 H       2.5946952 *  2.1818640 *  1.0810914 *  2.1222238 *  3.1290313  
   7 H       3.9577151    2.7467487 *  2.1331329 *  1.0823077 *  2.5173091 *
   8 H       4.4626403    3.4610901    2.1047414 *  1.0834281 *  3.7810319  

                6 H          7 H          8 H     

   1 O       2.5946952 *  3.9577151    4.4626403  
   2 C       2.1818640 *  2.7467487 *  3.4610901  
   3 C       1.0810914 *  2.1331329 *  2.1047414 *
   4 C       2.1222238 *  1.0823077 *  1.0834281 *
   5 H       3.1290313    2.5173091 *  3.7810319  
   6 H       0.0000000    3.0961803    2.4515366 *
   7 H       3.0961803    0.0000000    1.8513163 *
   8 H       2.4515366 *  1.8513163 *  0.0000000  

  * ... LESS THAN  3.000


     ATOMIC BASIS SET
     ----------------
 THE CONTRACTED PRIMITIVE FUNCTIONS HAVE BEEN UNNORMALIZED
 THE CONTRACTED BASIS FUNCTIONS ARE NOW NORMALIZED TO UNITY

  SHELL TYPE  PRIMITIVE        EXPONENT          CONTRACTION COEFFICIENT(S)

 O         

      1   S       1           322.0370000    0.059239393389
      1   S       2            48.4308000    0.351499960776
      1   S       3            10.4206000    0.707657921031

      2   L       4             7.4029400   -0.404453583190    0.244586106967
      2   L       5             1.5762000    1.221561761397    0.853955373466

      3   L       6             0.3736840    1.000000000000    1.000000000000

 C         

      4   S       7           172.2560000    0.061766907377
      4   S       8            25.9109000    0.358794042852
      4   S       9             5.5333500    0.700713083689

      5   L      10             3.6649800   -0.395895162119    0.236459946619
      5   L      11             0.7705450    1.215834355681    0.860618805716

      6   L      12             0.1958570    1.000000000000    1.000000000000

 C         

      7   S      13           172.2560000    0.061766907377
      7   S      14            25.9109000    0.358794042852
      7   S      15             5.5333500    0.700713083689

      8   L      16             3.6649800   -0.395895162119    0.236459946619
      8   L      17             0.7705450    1.215834355681    0.860618805716

      9   L      18             0.1958570    1.000000000000    1.000000000000

 C         

     10   S      19           172.2560000    0.061766907377
     10   S      20            25.9109000    0.358794042852
     10   S      21             5.5333500    0.700713083689

     11   L      22             3.6649800   -0.395895162119    0.236459946619
     11   L      23             0.7705450    1.215834355681    0.860618805716

     12   L      24             0.1958570    1.000000000000    1.000000000000

 H         

     13   S      25             5.4471780    0.156284978695
     13   S      26             0.8245472    0.904690876670

     14   S      27             0.1831916    1.000000000000

 H         

     15   S      28             5.4471780    0.156284978695
     15   S      29             0.8245472    0.904690876670

     16   S      30             0.1831916    1.000000000000

 H         

     17   S      31             5.4471780    0.156284978695
     17   S      32             0.8245472    0.904690876670

     18   S      33             0.1831916    1.000000000000

 H         

     19   S      34             5.4471780    0.156284978695
     19   S      35             0.8245472    0.904690876670

     20   S      36             0.1831916    1.000000000000

 TOTAL NUMBER OF BASIS SET SHELLS             =   20
 NUMBER OF CARTESIAN GAUSSIAN BASIS FUNCTIONS =   44
 NUMBER OF ELECTRONS                          =   30
 CHARGE OF MOLECULE                           =    0
 SPIN MULTIPLICITY                            =    1
 NUMBER OF OCCUPIED ORBITALS (ALPHA)          =   15
 NUMBER OF OCCUPIED ORBITALS (BETA )          =   15
 TOTAL NUMBER OF ATOMS                        =    8
 THE NUCLEAR REPULSION ENERGY IS      102.5075435142

 SELECTED MURRAY-HANDY-LAMING RADIAL GRID

 LEGACY BECKE'S FUZZY CELL METHOD

 SELECTED ORIGINAL BECKE'S PARTITION FUNCTION

     LEBEDEV GRID-BASED DFT OPTIONS
     ------------------------------
     DFTTYP=B3LYP   
     NRAD  =      96     NLEB  =     590
     NRAD0 =      24     NLEB0 =     110
     SWOFF =    5.00E-03 (PURE SCF -> DFT)
     SWITCH=    3.00E-04 (COARSE -> TIGHT GRID)
     THRESH=    0.00E+00 GTHRE=    1.00E+00

 GRIMME'S EMPIRICAL DISPERSION CORRECTION= F

     $CONTRL OPTIONS
     ---------------
 SCFTYP=RHF          RUNTYP=OPTIMIZE     EXETYP=RUN     
 MPLEVL=       0     CITYP =NONE         CCTYP =NONE         VBTYP =NONE    
 DFTTYP=B3LYP        TDDFT =NONE    
 MULT  =       1     ICHARG=       0     NZVAR =       0     COORD =UNIQUE  
 PP    =NONE         RELWFN=NONE         LOCAL =NONE         NUMGRD=       F
 ISPHER=      -1     NOSYM =       0     MAXIT =     200     UNITS =ANGS    
 PLTORB=       F     MOLPLT=       F     AIMPAC=       F     FRIEND=        
 NPRINT=       7     IREST =       0     GEOM  =INPUT   
 NORMF =       0     NORMP =       0     ITOL  =      20     ICUT  =       9
 INTTYP=BEST         GRDTYP=BEST         QMTTOL= 1.0E-06

     $SYSTEM OPTIONS
     ---------------
  REPLICATED MEMORY=   250000000 WORDS (ON EVERY NODE).
 DISTRIBUTED MEMDDI=           0 MILLION WORDS IN AGGREGATE,
 MEMDDI DISTRIBUTED OVER   1 PROCESSORS IS           0 WORDS/PROCESSOR.
 TOTAL MEMORY REQUESTED ON EACH PROCESSOR=   250000000 WORDS.
 TIMLIM=        2879.00 MINUTES, OR       2.0 DAYS.
 PARALL= F  BALTYP=  DLB     KDIAG=    0  COREFL= F
 MXSEQ2=     300 MXSEQ3=     150  mem10=         0

          ----------------
          PROPERTIES INPUT
          ----------------

     MOMENTS            FIELD           POTENTIAL          DENSITY
 IEMOM =       1   IEFLD =       0   IEPOT =       0   IEDEN =       0
 WHERE =COMASS     WHERE =NUCLEI     WHERE =NUCLEI     WHERE =NUCLEI  
 OUTPUT=BOTH       OUTPUT=BOTH       OUTPUT=BOTH       OUTPUT=BOTH    
 IEMINT=       0   IEFINT=       0                     IEDINT=       0
                                                       MORB  =       0
          EXTRAPOLATION IN EFFECT
          DIIS IN EFFECT
 ORBITAL PRINTING OPTION: NPREO=     1    44     2     1

     -------------------------------
     INTEGRAL TRANSFORMATION OPTIONS
     -------------------------------
     NWORD  =            0
     CUTOFF = 1.0E-09     MPTRAN =       0
     DIRTRF =       T     AOINTS =DUP     

          ----------------------
          INTEGRAL INPUT OPTIONS
          ----------------------
 NOPK  =       1 NORDER=       0 SCHWRZ=       T

     ------------------------------------------
     THE POINT GROUP IS C1 , NAXIS= 0, ORDER= 1
     ------------------------------------------

     DIMENSIONS OF THE SYMMETRY SUBSPACES ARE
 A   =   44

 ..... DONE SETTING UP THE RUN .....
 STEP CPU TIME =     0.01 TOTAL CPU TIME =          0.0 (      0.0 MIN)
 TOTAL WALL CLOCK TIME=          0.0 SECONDS, CPU UTILIZATION IS    25.00%


          -----------------------------
          STATIONARY POINT LOCATION RUN
          -----------------------------

 OBTAINING INITIAL HESSIAN, HESS=GUESS   
 CARTESIAN COORDINATE OPTIMIZATION USING BADGER'S RULE FORCE CONSTANT GUESS

          PARAMETERS CONTROLLING GEOMETRY SEARCH ARE
          METHOD =QA                  UPHESS =BFGS    
          NNEG   =         0          NFRZ   =         0
          NSTEP  =       999          IFOLOW =         1
          HESS   =GUESS               RESTAR =         F
          IHREP  =         0          HSSEND =         T
          NPRT   =         0          NPUN   =         0
          OPTTOL = 5.000E-04          RMIN   = 1.500E-03
          RMAX   = 1.000E-01          RLIM   = 7.000E-02
          DXMAX  = 3.000E-01          PURIFY =         F
          MOVIE  =         F          TRUPD  =         T
          TRMAX  = 5.000E-01          TRMIN  = 5.000E-02
          ITBMAT =         5          STPT   =         F
          STSTEP = 1.000E-02          PROJCT=          T

 BEGINNING GEOMETRY SEARCH POINT NSERCH=   0 ...

 COORDINATES OF ALL ATOMS ARE (ANGS)
   ATOM   CHARGE       X              Y              Z
 ------------------------------------------------------------
 O           8.0  -0.4263800000   1.6544900000   0.1784300000
 C           6.0   0.2825000000   0.6685200000   0.0127900000
 C           6.0  -0.2995900000  -0.6906000000  -0.0963100000
 C           6.0   0.4574500000  -1.8013300000  -0.1171700000
 H           1.0   1.3792200000   0.7383600000  -0.0559300000
 H           1.0  -1.3785300000  -0.7372900000  -0.1459800000
 H           1.0   1.5374000000  -1.7739700000  -0.0512200000
 H           1.0  -0.0145500000  -2.7738900000  -0.1890000000

          ********************
          1 ELECTRON INTEGRALS
          ********************
 ...... END OF ONE-ELECTRON INTEGRALS ......
 STEP CPU TIME =     0.01 TOTAL CPU TIME =          0.0 (      0.0 MIN)
 TOTAL WALL CLOCK TIME=          0.0 SECONDS, CPU UTILIZATION IS    40.00%

          -------------
          GUESS OPTIONS
          -------------
          GUESS =HUCKEL            NORB  =       0          NORDER=       0
          MIX   =       F          PRTMO =       F          PUNMO =       F
          TOLZ  = 1.0E-08          TOLE  = 1.0E-05
          SYMDEN=       F          PURIFY=       F

 INITIAL GUESS ORBITALS GENERATED BY HUCKEL   ROUTINE.
 HUCKEL GUESS REQUIRES     22304 WORDS.

 SYMMETRIES FOR INITIAL GUESS ORBITALS FOLLOW.   BOTH SET(S).
    15 ORBITALS ARE OCCUPIED (    4 CORE ORBITALS).
     5=A        6=A        7=A        8=A        9=A       10=A       11=A   
    12=A       13=A       14=A       15=A       16=A       17=A       18=A   
    19=A       20=A       21=A       22=A       23=A       24=A       25=A   
 ...... END OF INITIAL ORBITAL SELECTION ......
 STEP CPU TIME =     0.00 TOTAL CPU TIME =          0.0 (      0.0 MIN)
 TOTAL WALL CLOCK TIME=          0.1 SECONDS, CPU UTILIZATION IS    33.33%

                    ----------------------
                    AO INTEGRAL TECHNOLOGY
                    ----------------------
     S,P,L SHELL ROTATED AXIS INTEGRALS, REPROGRAMMED BY
        KAZUYA ISHIMURA (IMS) AND JOSE SIERRA (SYNSTAR).
     S,P,D,L SHELL ROTATED AXIS INTEGRALS PROGRAMMED BY
        KAZUYA ISHIMURA (INSTITUTE FOR MOLECULAR SCIENCE).
     S,P,D,F,G SHELL TO TOTAL QUARTET ANGULAR MOMENTUM SUM 5,
        ERIC PROGRAM BY GRAHAM FLETCHER (ELORET AND NASA ADVANCED
        SUPERCOMPUTING DIVISION, AMES RESEARCH CENTER).
     S,P,D,F,G,L SHELL GENERAL RYS QUADRATURE PROGRAMMED BY
        MICHEL DUPUIS (PACIFIC NORTHWEST NATIONAL LABORATORY).

          --------------------
          2 ELECTRON INTEGRALS
          --------------------

 DIRECT SCF METHOD SKIPS INTEGRAL STORAGE ON DISK.
 DIRECT TRANSFORMATION SKIPS AO INTEGRAL STORAGE ON DISK.
  ...... END OF TWO-ELECTRON INTEGRALS .....
 STEP CPU TIME =     0.01 TOTAL CPU TIME =          0.0 (      0.0 MIN)
 TOTAL WALL CLOCK TIME=          0.1 SECONDS, CPU UTILIZATION IS    42.86%

          --------------------------
             R-B3LYP SCF CALCULATION
          --------------------------

     NUCLEAR ENERGY =       102.5075435142
     MAXIT =  200     NPUNCH=    2
     EXTRAP=T  DAMP=F  SHIFT=F  RSTRCT=F  DIIS=T  DEM=F  SOSCF=F
         DENSITY MATRIX CONVERGENCE THRESHOLD=  2.00E-05
     COARSE -> FINE DFT GRID SWITCH THRESHOLD=  3.00E-04 (SWITCH IN $DFT)
                   HF -> DFT SWITCH THRESHOLD=  5.00E-03 (SWOFF IN $DFT)
     MEMORY REQUIRED FOR RHF ITERS=    598129 WORDS.

 DIRECT SCF CALCULATION, SCHWRZ=T   FDIFF=T,  DIRTHR=  0.00E+00 NITDIR=10
 SCHWARZ INEQUALITY OVERHEAD:       977 INTEGRALS, T=        0.00

 DFT CODE IS SWITCHING FROM THE FINE GRID NRAD= 96,  NLEB=  590
                      TO THE COARSE GRID NRAD0= 24, NLEB0=  110

     EXCHANGE FUNCTIONAL   =B88&HFX   
     CORRELATION FUNCTIONAL=LYP88&VWN5
     DFT THRESHOLD         =.883E-08
     GRID CHANGE THRESHOLD =.300E-03
 FOR AN EULER-MACLAURIN QUADRATURE USING  96 RADIAL POINTS:
 SMALLEST GAUSSIAN PRIMITIVE EXPONENT=        0.1831915800 OF TYPE -S-
 ON ATOM NUMBER   5 HAS RADIAL NORMALIZATION=  1.000000
  LARGEST GAUSSIAN PRIMITIVE EXPONENT=      322.0370000000 OF TYPE -S-
 ON ATOM NUMBER   1 HAS RADIAL NORMALIZATION=  1.000000
 DFT IS SWITCHED OFF, PERFORMING PURE SCF UNTIL SWOFF THRESHOLD IS REACHED.

                                                                                   NONZERO     BLOCKS
 ITER EX DEM     TOTAL ENERGY        E CHANGE  DENSITY CHANGE    DIIS ERROR      INTEGRALS    SKIPPED
   1  0  0     -189.2187589217  -189.2187589217   0.587271992   0.631859231         434083       3393
          * * *   INITIATING DIIS PROCEDURE   * * *
   2  1  0     -189.6384031733    -0.4196442516   0.098253535   0.143903689         433809       3644
   3  2  0     -189.6632326564    -0.0248294831   0.095742436   0.115831412         432887       4031
   4  3  0     -189.6868730331    -0.0236403767   0.020790939   0.009293900         431522       4362
   5  4  0     -189.6872816030    -0.0004085699   0.004496529   0.002589422         428482       4872
 CONVERGED TO SWOFF, SO DFT CALCULATION IS NOW SWITCHED ON.
          * * *   INITIATING DIIS PROCEDURE   * * *
   6  5  0     -190.7209702956    -1.0336886926   0.153723455   0.082972491         434104       3375
   7  6  0     -190.7335889995    -0.0126187039   0.086574583   0.051598634         433151       3955
   8  7  0     -190.7302351197     0.0033538798   0.067239497   0.082640641         432003       4220
   9  8  0     -190.7391236324    -0.0088885128   0.010381843   0.011675780         430879       4503
  10  9  0     -190.7394268306    -0.0003031981   0.001815114   0.002469796         427432       4971
  11 10  0     -190.7394328119    -0.0000059814   0.000814267   0.001129115         421958       5585
  12 11  0     -190.7394350590    -0.0000022471   0.000127555   0.000089708         414671       6172
 DFT CODE IS SWITCHING BACK TO THE FINE GRID
          * * *   INITIATING DIIS PROCEDURE   * * *
  13 12  0     -190.7382458224     0.0011892366   0.000867797   0.001145170         434133       3341
  14 13  0     -190.7382498978    -0.0000040754   0.000378414   0.000248637         421242       5601
  15 14  0     -190.7382498539     0.0000000439   0.000328447   0.000357475         412439       6298
  16 15  0     -190.7382500948    -0.0000002409   0.000184557   0.000165827         408571       6733
  17 16  0     -190.7382501295    -0.0000000346   0.000023204   0.000026438         403324       7073
  18 17  0     -190.7382501311    -0.0000000017   0.000011506   0.000012818         393298       7789
  19 18  0     -190.7382501316    -0.0000000004   0.000003267   0.000005911         384105       8376

          -----------------
          DENSITY CONVERGED
          -----------------
     TIME TO FORM FOCK OPERATORS=       5.4 SECONDS (       0.3 SEC/ITER)
     FOCK TIME ON FIRST ITERATION=       0.0, LAST ITERATION=       0.7
     TIME TO SOLVE SCF EQUATIONS=       0.0 SECONDS (       0.0 SEC/ITER)

 FINAL R-B3LYP ENERGY IS     -190.7382501316 AFTER  19 ITERATIONS
 DFT EXCHANGE + CORRELATION ENERGY =       -21.0910354153
 TOTAL ELECTRON NUMBER             =        30.0000039559

          ------------
          EIGENVECTORS
          ------------

                      1          2          3          4          5
                  -19.0359   -10.2111   -10.1502   -10.1426    -1.0530
                     A          A          A          A          A   
    1  O  1  S    0.982699   0.000331  -0.000046   0.000004  -0.208787
    2  O  1  S    0.106745   0.001066  -0.000492  -0.000193   0.198211
    3  O  1  X    0.002528  -0.000348   0.000039  -0.000153   0.086555
    4  O  1  Y   -0.003779   0.000920   0.000178   0.000058  -0.123550
    5  O  1  Z   -0.000655   0.000116   0.000041  -0.000004  -0.020653
    6  O  1  S   -0.060759  -0.002445   0.001379   0.000042   0.648674
    7  O  1  X   -0.008448  -0.004198  -0.000082   0.000747   0.080711
    8  O  1  Y    0.014166   0.003388  -0.000856   0.001298  -0.120226
    9  O  1  Z    0.002385   0.000769  -0.000152   0.000119  -0.020298
   10  C  2  S    0.000050   0.985281   0.002082   0.007850  -0.124962
   11  C  2  S    0.000333   0.105047  -0.000645  -0.002478   0.137243
   12  C  2  X   -0.000294  -0.000616  -0.000027   0.000287  -0.100557
   13  C  2  Y    0.002132   0.000803   0.000659   0.000873   0.124377
   14  C  2  Z    0.000312   0.000156   0.000017   0.000094   0.021531
   15  C  2  S    0.024080  -0.060645  -0.000798   0.024723   0.139320
   16  C  2  X   -0.022531  -0.004098  -0.000191  -0.003348   0.058798
   17  C  2  Y    0.014639   0.015586  -0.000308  -0.013805  -0.041633
   18  C  2  Z    0.002943   0.001896  -0.000114  -0.001042  -0.007941
   19  C  3  S    0.000103  -0.008079  -0.071442   0.983185  -0.020618
   20  C  3  S    0.000244  -0.003761  -0.012212   0.107933   0.022039
   21  C  3  X   -0.001073  -0.001103  -0.001977   0.000923   0.005829
   22  C  3  Y    0.000104  -0.001226   0.002486   0.000070   0.023155
   23  C  3  Z   -0.000020  -0.000101   0.000032   0.000065   0.002475
   24  C  3  S   -0.001808   0.020201   0.033005  -0.086610   0.015582
   25  C  3  X    0.011365   0.009953   0.010134  -0.013950  -0.042821
   26  C  3  Y   -0.011089   0.011474  -0.013550  -0.000976   0.036107
   27  C  3  Z   -0.000936   0.000829  -0.000160  -0.000839   0.003836
   28  C  4  S   -0.000015  -0.002806   0.982912   0.071174  -0.003377
   29  C  4  S   -0.000424  -0.001471   0.106395   0.003059   0.005495
   30  C  4  X   -0.000093  -0.000007  -0.000241   0.001240  -0.001043
   31  C  4  Y   -0.001268  -0.001427   0.000292  -0.002295   0.009105
   32  C  4  Z   -0.000035  -0.000116   0.000040  -0.000052   0.000584
   33  C  4  S   -0.009403  -0.000951  -0.079994   0.025114   0.038952
   34  C  4  X    0.004082  -0.000849   0.005855  -0.004081  -0.016726
   35  C  4  Y   -0.000123   0.001738  -0.008334   0.016024  -0.000893
   36  C  4  Z    0.000366   0.000231  -0.000268   0.000653  -0.001996
   37  H  5  S    0.000784  -0.001671  -0.000120  -0.001483   0.023193
   38  H  5  S    0.005979   0.014906   0.000172  -0.000184  -0.034409
   39  H  6  S    0.001554  -0.000603  -0.000898  -0.002455   0.003769
   40  H  6  S    0.004969   0.003935   0.000845   0.010681  -0.016566
   41  H  7  S   -0.000480  -0.000173  -0.001912  -0.001935   0.002705
   42  H  7  S   -0.000240   0.000529   0.013645  -0.000431   0.002676
   43  H  8  S    0.000579  -0.000057  -0.001816  -0.000753  -0.000808
   44  H  8  S    0.002030   0.001977   0.013792   0.003768  -0.011030

                      6          7          8          9         10
                   -0.7999    -0.6466    -0.5739    -0.4836    -0.4693
                     A          A          A          A          A   
    1  O  1  S    0.040904  -0.071769  -0.037182  -0.002845  -0.068208
    2  O  1  S   -0.040125   0.069950   0.038042   0.002754   0.061038
    3  O  1  X   -0.015277  -0.001079  -0.087729  -0.133887  -0.073472
    4  O  1  Y   -0.000082   0.038171  -0.012205  -0.089722   0.145056
    5  O  1  Z    0.001469   0.005074   0.002937   0.001752   0.033761
    6  O  1  S   -0.139858   0.267165   0.132886   0.012134   0.279579
    7  O  1  X   -0.011713   0.000228  -0.073427  -0.111090  -0.063708
    8  O  1  Y    0.004807   0.024366  -0.006830  -0.074575   0.125864
    9  O  1  Z    0.001673   0.003183   0.003088   0.001336   0.030074
   10  C  2  S   -0.052959   0.120661   0.091119   0.005855   0.057337
   11  C  2  S    0.062272  -0.137805  -0.101414  -0.003501  -0.070373
   12  C  2  X    0.008696  -0.028132  -0.202412  -0.236818   0.059944
   13  C  2  Y   -0.115307   0.151374  -0.029540  -0.167203  -0.063767
   14  C  2  Z   -0.012179   0.021474   0.006971   0.001692   0.005578
   15  C  2  S    0.102817  -0.338492  -0.299494  -0.032692  -0.194942
   16  C  2  X    0.004126  -0.020728  -0.140810  -0.176315   0.011195
   17  C  2  Y   -0.026698   0.086018   0.020844  -0.119648   0.030081
   18  C  2  Z   -0.003032   0.012988   0.008951   0.002820   0.015337
   19  C  3  S   -0.169911   0.062240  -0.097591   0.017979  -0.032318
   20  C  3  S    0.182402  -0.065228   0.100841  -0.016879   0.036056
   21  C  3  X    0.069070   0.007822  -0.161908   0.062803   0.226247
   22  C  3  Y   -0.051026  -0.198345  -0.031426   0.234368  -0.135801
   23  C  3  Z    0.000917  -0.008771  -0.005579   0.023352   0.006086
   24  C  3  S    0.375176  -0.194049   0.333188  -0.083091   0.113576
   25  C  3  X    0.029481  -0.006458  -0.075208   0.034745   0.179643
   26  C  3  Y   -0.007968  -0.045538  -0.006662   0.126122  -0.048234
   27  C  3  Z    0.000856  -0.001939  -0.002068   0.013914   0.007511
   28  C  4  S   -0.150801  -0.139681   0.050476  -0.015418   0.008324
   29  C  4  S    0.165255   0.145332  -0.051174   0.011289  -0.001897
   30  C  4  X   -0.051378  -0.001575  -0.135456   0.263876   0.006656
   31  C  4  Y    0.087227  -0.062759   0.042000  -0.041630   0.337085
   32  C  4  Z    0.002523  -0.002195  -0.004209   0.015454   0.018397
   33  C  4  S    0.315244   0.427324  -0.182328   0.088026  -0.080404
   34  C  4  X   -0.008840  -0.009523  -0.074119   0.166398   0.021926
   35  C  4  Y    0.004365  -0.017456   0.001990  -0.009101   0.197356
   36  C  4  Z    0.000224  -0.000527  -0.003192   0.011022   0.011743
   37  H  5  S    0.033246  -0.095220  -0.171131  -0.138598  -0.025921
   38  H  5  S    0.006720  -0.026808  -0.083982  -0.084848  -0.002068
   39  H  6  S    0.074037  -0.043537   0.157633  -0.058541  -0.101445
   40  H  6  S    0.004715  -0.009076   0.086619  -0.037053  -0.062246
   41  H  7  S    0.070667   0.097249  -0.110698   0.171088   0.001668
   42  H  7  S    0.006847   0.031760  -0.065573   0.122101  -0.003524
   43  H  8  S    0.066357   0.122162  -0.030979  -0.031536  -0.201185
   44  H  8  S   -0.001464   0.047635  -0.017667  -0.021618  -0.161359

                     11         12         13         14         15
                   -0.4067    -0.3947    -0.3911    -0.2869    -0.2463
                     A          A          A          A          A   
    1  O  1  S   -0.081844  -0.027592   0.013017   0.000182  -0.000148
    2  O  1  S    0.070693   0.023633  -0.010815   0.000188   0.003516
    3  O  1  X   -0.193657  -0.095900   0.132527  -0.024057   0.387612
    4  O  1  Y    0.319518   0.043635   0.004691   0.034901   0.284287
    5  O  1  Z   -0.032230   0.308905   0.150222  -0.224293   0.004372
    6  O  1  S    0.325193   0.108467  -0.053533  -0.005623  -0.021069
    7  O  1  X   -0.189682  -0.090322   0.120228  -0.028261   0.416352
    8  O  1  Y    0.305794   0.044223   0.000317   0.039126   0.311837
    9  O  1  Z   -0.031626   0.303813   0.147914  -0.246408   0.005988
   10  C  2  S    0.029513  -0.005421   0.021653  -0.000811   0.000179
   11  C  2  S   -0.054839  -0.001928  -0.021531  -0.000147   0.011540
   12  C  2  X    0.200135   0.045495   0.078727   0.005861  -0.097757
   13  C  2  Y   -0.180429  -0.164402   0.135940   0.003491  -0.076446
   14  C  2  Z   -0.119354   0.254361   0.154711  -0.048900  -0.002554
   15  C  2  S   -0.021360   0.055238  -0.092896   0.009860  -0.056651
   16  C  2  X    0.043175  -0.008666   0.091718  -0.003469   0.059006
   17  C  2  Y    0.001164  -0.085848   0.088460   0.014905   0.123586
   18  C  2  Z   -0.081329   0.252678   0.144293  -0.072261   0.007060
   19  C  3  S   -0.004940   0.007197  -0.015182   0.001065  -0.046324
   20  C  3  S   -0.002259  -0.007014   0.008800  -0.000452   0.029996
   21  C  3  X   -0.134005   0.057974  -0.225175  -0.014166   0.061083
   22  C  3  Y    0.119263   0.053781  -0.046314  -0.019891   0.183007
   23  C  3  Z   -0.048136   0.138740   0.059815   0.307429   0.015592
   24  C  3  S    0.061463  -0.032132   0.103652  -0.007390   0.434767
   25  C  3  X   -0.032266   0.064025  -0.174024  -0.009309   0.173610
   26  C  3  Y    0.057177   0.021608  -0.029654  -0.020577   0.149728
   27  C  3  Z   -0.039714   0.111735   0.049018   0.319669   0.013487
   28  C  4  S    0.017721   0.003113   0.010360   0.000339   0.010118
   29  C  4  S   -0.024484  -0.003598  -0.013320  -0.000529  -0.004943
   30  C  4  X    0.089662  -0.103965   0.226265  -0.019896   0.021828
   31  C  4  Y   -0.139303  -0.102188   0.069898  -0.015746  -0.059240
   32  C  4  Z   -0.027234   0.062016   0.057202   0.323557   0.004476
   33  C  4  S   -0.080287  -0.022444  -0.032319  -0.003697  -0.131811
   34  C  4  X    0.060692  -0.079684   0.170639  -0.019977   0.029416
   35  C  4  Y   -0.081792  -0.080087   0.069810  -0.014718  -0.134934
   36  C  4  Z   -0.021390   0.053975   0.048732   0.336619   0.005439
   37  H  5  S    0.098009   0.015945   0.035430   0.009686  -0.162576
   38  H  5  S    0.129377   0.023185   0.037775   0.010214  -0.305919
   39  H  6  S    0.100227  -0.057612   0.184066  -0.000204  -0.023562
   40  H  6  S    0.126439  -0.037902   0.154507   0.004989  -0.064999
   41  H  7  S    0.045086  -0.082077   0.169743  -0.001141  -0.013906
   42  H  7  S    0.059869  -0.073811   0.169494  -0.000363  -0.033831
   43  H  8  S    0.042084   0.097109  -0.139705   0.000359   0.039027
   44  H  8  S    0.055644   0.091615  -0.121676   0.001450   0.039691

                     16         17         18         19         20
                   -0.0581     0.0643     0.1315     0.1369     0.1683
                     A          A          A          A          A   
    1  O  1  S   -0.001130   0.003822   0.018848  -0.001163   0.000514
    2  O  1  S    0.000785  -0.002597  -0.010052   0.005469  -0.009013
    3  O  1  X    0.016770   0.015493  -0.063979   0.043955  -0.061631
    4  O  1  Y   -0.041498  -0.010145   0.043633   0.025912   0.019827
    5  O  1  Z    0.294308   0.219149  -0.011468  -0.009250   0.012161
    6  O  1  S    0.009803  -0.034193  -0.186446  -0.009006   0.049224
    7  O  1  X    0.023776   0.018132  -0.128387   0.102263  -0.088125
    8  O  1  Y   -0.054712  -0.016539   0.074861   0.061582   0.012368
    9  O  1  Z    0.386267   0.334423  -0.013162  -0.013929   0.016582
   10  C  2  S   -0.000713   0.001558  -0.033317   0.051856  -0.127877
   11  C  2  S   -0.000158   0.000975   0.029516  -0.029441   0.076440
   12  C  2  X   -0.018432  -0.033496   0.043270  -0.191280   0.179385
   13  C  2  Y    0.033675   0.042588   0.011393  -0.028569  -0.077538
   14  C  2  Z   -0.283152  -0.349082   0.033339   0.019439  -0.036751
   15  C  2  S    0.007691  -0.036232   0.298793  -0.653680   1.596057
   16  C  2  X   -0.011898  -0.063664   0.147497  -0.455740   0.503646
   17  C  2  Y    0.031640   0.105936   0.221413  -0.050283  -0.412211
   18  C  2  Z   -0.333195  -0.559938   0.075088   0.056164  -0.103054
   19  C  3  S   -0.000316  -0.004009  -0.037000  -0.068568   0.028078
   20  C  3  S   -0.000082   0.000739   0.011876   0.048912  -0.014703
   21  C  3  X    0.009420  -0.025575  -0.158129  -0.138426  -0.047693
   22  C  3  Y    0.004533  -0.017641  -0.010371  -0.000777  -0.165108
   23  C  3  Z   -0.182364   0.355017  -0.030823  -0.017767   0.003879
   24  C  3  S    0.002773   0.073699   0.700733   0.710768  -0.300034
   25  C  3  X   -0.003986  -0.052512  -0.429165  -0.362103  -0.155491
   26  C  3  Y    0.023098  -0.009125   0.136147  -0.010412  -0.624452
   27  C  3  Z   -0.311063   0.669771  -0.055251  -0.048992   0.002915
   28  C  4  S   -0.002841  -0.009729  -0.114209   0.066653   0.062425
   29  C  4  S    0.003157   0.009148   0.071256  -0.041280  -0.033177
   30  C  4  X   -0.018747   0.008292  -0.000364  -0.205801  -0.144290
   31  C  4  Y   -0.009488   0.012547  -0.193478  -0.041756  -0.046053
   32  C  4  Z    0.314539  -0.206277  -0.001940  -0.005420  -0.024569
   33  C  4  S    0.032196   0.096516   1.473998  -0.793091  -0.874005
   34  C  4  X   -0.031219   0.020283   0.030918  -0.616759  -0.433218
   35  C  4  Y   -0.024138  -0.009590  -0.680082  -0.084148  -0.242249
   36  C  4  Z    0.490935  -0.468987  -0.005500  -0.023682  -0.064268
   37  H  5  S   -0.002951   0.010564   0.029264   0.037203  -0.092935
   38  H  5  S   -0.017281   0.057805  -0.266021   0.937195  -1.371795
   39  H  6  S   -0.008064  -0.012329  -0.048144  -0.101848  -0.009720
   40  H  6  S   -0.030196  -0.081950  -0.834379  -1.018048  -0.074401
   41  H  7  S    0.003387   0.000913  -0.010473   0.064619   0.103887
   42  H  7  S   -0.005581  -0.033893  -0.602302   1.212923   1.042440
   43  H  8  S   -0.003660  -0.008816  -0.099104  -0.002528  -0.042883
   44  H  8  S   -0.018376  -0.080945  -1.443052  -0.108707  -0.204205

                     21         22         23         24         25
                    0.2192     0.3104     0.3450     0.3988     0.6832
                     A          A          A          A          A   
    1  O  1  S   -0.000153   0.114860  -0.003991  -0.054588  -0.009407
    2  O  1  S    0.001145  -0.060640   0.021570   0.006583   0.004465
    3  O  1  X   -0.098147  -0.140722  -0.069105   0.015754   0.040018
    4  O  1  Y   -0.041970   0.160780  -0.138633  -0.084576   0.004002
    5  O  1  Z   -0.002304   0.028065  -0.009557  -0.009600   0.023193
    6  O  1  S    0.012208  -1.313080  -0.123570   0.816260   0.109299
    7  O  1  X   -0.160798  -0.449080  -0.186056   0.069852   0.052351
    8  O  1  Y   -0.080616   0.462473  -0.209744  -0.404518  -0.070297
    9  O  1  Z   -0.002903   0.079936  -0.000303  -0.060557   0.080594
   10  C  2  S    0.001117  -0.055797   0.088117   0.071809   0.000893
   11  C  2  S   -0.013143   0.000068  -0.031908  -0.014604   0.037204
   12  C  2  X    0.164963  -0.044922   0.204078   0.290501   0.107807
   13  C  2  Y    0.163890   0.167052   0.197637   0.177541  -0.159590
   14  C  2  Z    0.007025   0.029211   0.010090  -0.010592   0.699426
   15  C  2  S    0.253080   0.510307  -1.388740  -1.209967  -0.261009
   16  C  2  X    0.523427  -0.434959   0.348908   1.454164   0.011445
   17  C  2  Y    0.233586   1.528846   1.268340   0.036305   0.070663
   18  C  2  Z    0.002298   0.232726   0.071760  -0.054929  -0.692159
   19  C  3  S   -0.112713   0.035540  -0.141678   0.009793   0.015559
   20  C  3  S    0.062415  -0.038462   0.050921   0.030709   0.022294
   21  C  3  X   -0.154770   0.047017   0.318484  -0.082005  -0.023762
   22  C  3  Y   -0.018795   0.033689   0.056407   0.331321  -0.160954
   23  C  3  Z   -0.008744  -0.016264   0.017285   0.021896   0.429205
   24  C  3  S    1.581296  -0.350771   2.654282  -1.279794   0.030379
   25  C  3  X   -0.816977   0.224712   1.794636  -0.958401  -0.064688
   26  C  3  Y   -0.137293   0.994207   0.277743   2.445985   0.369452
   27  C  3  Z   -0.030754   0.007261   0.116875   0.129672  -0.137443
   28  C  4  S    0.059610  -0.020427   0.080544  -0.063446  -0.004790
   29  C  4  S   -0.037499   0.035653  -0.011816  -0.034704   0.048893
   30  C  4  X    0.203783  -0.086839  -0.085363  -0.166518  -0.168361
   31  C  4  Y    0.138765   0.212055  -0.119713  -0.055498   0.165371
   32  C  4  Z    0.014591  -0.000566  -0.010428  -0.015339   0.560518
   33  C  4  S   -0.658926   0.335311  -1.536137   2.140127   0.200255
   34  C  4  X    0.964234  -0.674266   0.047382  -1.520686   0.116768
   35  C  4  Y    0.472750   0.484181  -1.704745   1.499454  -0.145536
   36  C  4  Z    0.067968   0.014587  -0.092496  -0.017885  -0.494820
   37  H  5  S    0.015911  -0.054974   0.005429   0.045233   0.077477
   38  H  5  S   -0.639350  -0.100398  -0.108059  -0.928216  -0.057699
   39  H  6  S   -0.019233  -0.094853  -0.014008   0.053065   0.045393
   40  H  6  S   -1.455755   0.340691   0.841951  -0.377246  -0.058685
   41  H  7  S    0.018296   0.068678  -0.075718  -0.014157  -0.018698
   42  H  7  S   -0.679104   0.507837   0.605654   0.749249  -0.022154
   43  H  8  S    0.030700  -0.000893   0.017138   0.171278  -0.002507
   44  H  8  S    1.283794   0.225003  -0.753730  -0.130982  -0.040173

                     26         27         28         29         30
                    0.6893     0.7151     0.7561     0.7876     0.8101
                     A          A          A          A          A   
    1  O  1  S   -0.016518   0.045941  -0.004725  -0.020527   0.001005
    2  O  1  S   -0.002317  -0.064090   0.006821   0.034178  -0.010993
    3  O  1  X    0.087611  -0.161875   0.013914  -0.047399   0.036380
    4  O  1  Y    0.044347   0.104319  -0.009780  -0.263978   0.017455
    5  O  1  Z   -0.010546   0.026739  -0.062338  -0.023294   0.019944
    6  O  1  S    0.249010  -0.237103   0.007269  -0.129409   0.013362
    7  O  1  X    0.094681  -0.169738   0.008295  -0.053245   0.023851
    8  O  1  Y   -0.119582   0.237396  -0.020264  -0.249887  -0.024924
    9  O  1  Z   -0.049581   0.037763  -0.103353  -0.021727   0.089645
   10  C  2  S   -0.010427  -0.053662   0.005316   0.020307   0.000257
   11  C  2  S    0.078989  -0.062962   0.016616  -0.084105  -0.025959
   12  C  2  X    0.058914  -0.302760  -0.009907  -0.109967   0.076203
   13  C  2  Y   -0.157061   0.466735  -0.009796  -0.883936  -0.046199
   14  C  2  Z   -0.213688   0.053834  -0.688953  -0.076590   0.253430
   15  C  2  S   -0.640511   0.596762  -0.073345  -0.549734  -0.104535
   16  C  2  X    0.205765   0.069545   0.051966   0.774723  -0.086186
   17  C  2  Y   -0.040083  -0.162866  -0.010924   1.504094   0.064599
   18  C  2  Z    0.186635  -0.008542   0.799774   0.088834  -0.597033
   19  C  3  S    0.051504  -0.001037   0.003062   0.012238  -0.015377
   20  C  3  S    0.052705  -0.076401   0.010545   0.025578   0.029321
   21  C  3  X   -0.099992  -0.271226   0.029390  -0.183205   0.079678
   22  C  3  Y   -0.516585  -0.215889   0.032598   0.016895  -0.164673
   23  C  3  Z   -0.176008   0.085323   0.080100   0.036245  -0.922316
   24  C  3  S    0.144947  -0.090199   0.046786   0.691888  -0.088486
   25  C  3  X   -0.094405   0.441902  -0.062514   0.652591  -0.058623
   26  C  3  Y    1.020604  -0.243362   0.045663   0.562313   0.142389
   27  C  3  Z    0.112005  -0.074502  -0.099688   0.024445   1.296280
   28  C  4  S   -0.012030   0.013798  -0.003527   0.000267   0.025247
   29  C  4  S    0.115790  -0.083351   0.008802   0.091240   0.028959
   30  C  4  X   -0.499529  -0.118501  -0.046228   0.079772   0.052782
   31  C  4  Y    0.451929  -0.433344   0.025485  -0.040921  -0.168640
   32  C  4  Z   -0.182530   0.117239   0.803857  -0.021388   0.360549
   33  C  4  S    0.561602  -0.266445   0.051818  -0.230873  -0.053066
   34  C  4  X    0.617940   0.531546   0.007507  -0.429069  -0.078632
   35  C  4  Y   -0.423095   0.462189  -0.038372   0.161489   0.271289
   36  C  4  Z    0.168847  -0.068580  -0.777323   0.016406  -0.680064
   37  H  5  S    0.111621  -0.511255   0.061690  -0.372089  -0.003236
   38  H  5  S   -0.107556   0.164324  -0.035146  -0.169834   0.046871
   39  H  6  S    0.313119   0.283248  -0.009008   0.343323  -0.026952
   40  H  6  S   -0.209789   0.043918  -0.024225   0.041261   0.025160
   41  H  7  S   -0.272238  -0.328094   0.013868   0.183383   0.172092
   42  H  7  S   -0.149262  -0.068996   0.006257   0.173335  -0.040888
   43  H  8  S    0.105391   0.293662  -0.043700   0.220643   0.209541
   44  H  8  S   -0.101258   0.112504  -0.017312  -0.081178  -0.023656

                     31         32         33         34         35
                    0.8139     0.8529     0.9993     1.0385     1.0670
                     A          A          A          A          A   
    1  O  1  S   -0.001442   0.007762   0.001783  -0.005577   0.004108
    2  O  1  S   -0.013057  -0.004198  -0.003160  -0.006092   0.016241
    3  O  1  X    0.112800  -0.153330   0.017198   0.020145  -0.006658
    4  O  1  Y    0.043322   0.119887  -0.042206   0.013150  -0.055416
    5  O  1  Z   -0.012422   0.021778  -0.003530   0.008430  -0.006291
    6  O  1  S    0.021723   0.242820  -0.099643   0.171768  -0.132843
    7  O  1  X    0.064938  -0.129897   0.030802  -0.169141  -0.061586
    8  O  1  Y   -0.017244   0.040541   0.050703  -0.187264   0.082792
    9  O  1  Z   -0.045055   0.013086   0.002168  -0.015285   0.016913
   10  C  2  S    0.007678  -0.018917   0.003718   0.043001   0.010496
   11  C  2  S   -0.076764   0.320634  -0.169096  -0.206812  -0.065355
   12  C  2  X    0.196587  -0.723749   0.143327  -0.619086  -0.166815
   13  C  2  Y   -0.004754   0.216395  -0.055626  -0.256216   0.063431
   14  C  2  Z   -0.131681   0.073731  -0.010247   0.024195   0.000726
   15  C  2  S   -0.292106   0.204708   0.741275  -0.304018   0.160530
   16  C  2  X   -0.286233   1.097160  -0.316899   1.730941  -0.115001
   17  C  2  Y   -0.119882  -0.194157  -0.276544   0.951378   0.128574
   18  C  2  Z    0.261016  -0.088096  -0.008026  -0.013365   0.012344
   19  C  3  S   -0.045064   0.010342   0.017693  -0.022385  -0.026600
   20  C  3  S    0.103521   0.226857  -0.036776  -0.119054   0.124899
   21  C  3  X    0.216547   0.413937   0.364134  -0.080619  -0.755047
   22  C  3  Y   -0.666491   0.187314   0.117776  -0.402848   0.221321
   23  C  3  Z    0.279595   0.020601   0.019887  -0.024972  -0.019864
   24  C  3  S   -0.322205  -0.035789  -0.108758   0.243671   0.350899
   25  C  3  X   -0.296509  -0.704349  -1.181349  -0.255292   1.534062
   26  C  3  Y    0.726924   0.021375  -0.722966   1.763467  -0.815515
   27  C  3  Z   -0.419903   0.005498  -0.097531   0.120010   0.019081
   28  C  4  S    0.073661   0.021387  -0.003298  -0.013694   0.027000
   29  C  4  S    0.089220   0.149915   0.017830  -0.137185  -0.090918
   30  C  4  X    0.209249  -0.103877  -0.795739   0.044761  -0.498991
   31  C  4  Y   -0.346982   0.175888  -0.521632  -0.446920   0.233440
   32  C  4  Z   -0.111907   0.002644  -0.070607  -0.009170  -0.015322
   33  C  4  S    0.057099   0.118355   0.069096   0.806096  -0.642387
   34  C  4  X   -0.323485  -0.012939   1.680971  -0.450864   0.945284
   35  C  4  Y    0.576172  -0.005269   1.115340   0.938564  -0.773905
   36  C  4  Z    0.225098  -0.012178   0.149777  -0.000261   0.013547
   37  H  5  S    0.107818   0.380234  -0.171647   0.647055   0.137804
   38  H  5  S    0.157932  -0.835133   0.252967  -1.686485  -0.106881
   39  H  6  S   -0.175248   0.443822   0.150778  -0.366980  -0.663947
   40  H  6  S   -0.003312  -0.573162  -0.759933   0.222800   1.482591
   41  H  7  S    0.524712   0.391432   0.486755  -0.323359   0.552711
   42  H  7  S   -0.191873  -0.196366  -1.441569   0.437909  -0.979816
   43  H  8  S    0.542020   0.323940  -0.546997  -0.429490   0.274447
   44  H  8  S   -0.094747  -0.253172   1.462204   0.662642  -0.287352

                     36         37         38         39         40
                    1.1980     1.2949     1.3960     1.5101     1.5219
                     A          A          A          A          A   
    1  O  1  S   -0.052216   0.018818   0.024823   0.003595   0.000541
    2  O  1  S    0.075821  -0.023083  -0.059516  -0.006475   0.004452
    3  O  1  X   -0.249724  -0.031006   0.248341   0.049233   0.181940
    4  O  1  Y    0.143872   0.004712  -0.168027  -0.084615  -0.296719
    5  O  1  Z   -0.000160   0.029710  -0.064145  -0.831736   0.581881
    6  O  1  S    1.018919  -0.232751  -0.270879  -0.015300   0.033013
    7  O  1  X    0.171936   0.024360  -0.289219  -0.073939  -0.223852
    8  O  1  Y   -0.490494   0.134827   0.301412   0.130030   0.357387
    9  O  1  Z   -0.055417  -0.004713   0.084918   0.911560  -0.639989
   10  C  2  S   -0.016768  -0.017778   0.030561   0.000692   0.000491
   11  C  2  S    0.343902   0.827453  -0.723731  -0.518937  -0.743027
   12  C  2  X   -0.252075   0.164289  -0.043646  -0.109154  -0.162985
   13  C  2  Y    0.112751   0.025680   0.338395   0.078547   0.127985
   14  C  2  Z    0.003914  -0.011104   0.028059   0.044640  -0.000200
   15  C  2  S   -1.921037  -1.356296   0.391887   1.570046   2.095581
   16  C  2  X    2.254915  -1.037297  -0.244016   0.242495   0.516088
   17  C  2  Y   -0.057693   0.416971   0.116878  -0.539444  -0.851803
   18  C  2  Z   -0.091953   0.096943   0.010030  -0.389911   0.144964
   19  C  3  S   -0.010423  -0.031796   0.015660   0.007213   0.011200
   20  C  3  S   -0.000481   0.923652   0.000824   0.164861   0.234106
   21  C  3  X    0.083747  -0.379823  -0.363497   0.115583   0.171265
   22  C  3  Y   -0.408930  -0.043914  -0.210399   0.055778   0.045239
   23  C  3  Z   -0.040946  -0.008980  -0.026579  -0.005361   0.006652
   24  C  3  S    0.051688  -1.067424  -0.506289  -0.263729  -0.458531
   25  C  3  X   -0.756486   1.784785   2.062975  -0.782933  -1.159051
   26  C  3  Y    2.702014   0.101845   0.862918  -0.749030  -0.778563
   27  C  3  Z    0.210344   0.038615   0.137624   0.048218  -0.138415
   28  C  4  S   -0.010638  -0.026306   0.003020  -0.012083  -0.014891
   29  C  4  S    0.020678   0.820817  -0.157226   0.818702   0.999511
   30  C  4  X    0.135081   0.105243   0.269254  -0.034897  -0.031711
   31  C  4  Y    0.248285  -0.308539   0.167682   0.048750   0.114964
   32  C  4  Z    0.018889  -0.013851   0.024598  -0.012814   0.023995
   33  C  4  S    1.716480  -1.734568   0.049187  -1.250184  -1.319171
   34  C  4  X   -1.435978  -0.599134  -1.827438   0.494921   0.507707
   35  C  4  Y   -0.226156   0.080476  -1.239262   0.140251   0.116781
   36  C  4  Z   -0.114556  -0.008692  -0.161321   0.014899   0.012467
   37  H  5  S   -0.754540   0.192616   0.129478  -0.141149  -0.233628
   38  H  5  S   -0.223246   0.697754  -0.162530  -0.349921  -0.504491
   39  H  6  S   -0.399218   0.170360   0.697624  -0.206752  -0.268359
   40  H  6  S    0.026807   1.174674   0.657257  -0.222008  -0.355922
   41  H  7  S    0.344368   0.027195   0.549758  -0.154735  -0.161307
   42  H  7  S    0.222966   0.664691   0.551454   0.171469   0.202656
   43  H  8  S   -0.507110  -0.383826  -0.522913   0.111720   0.115678
   44  H  8  S   -0.233389   0.671860  -0.651098   0.367402   0.374220

                     41         42         43         44
                    1.6098     1.6576     1.8003     3.1388
                     A          A          A          A   
    1  O  1  S    0.045705   0.002650  -0.000382   0.051472
    2  O  1  S   -0.180663  -0.012941   0.018318  -1.763556
    3  O  1  X    0.282221   0.838443   0.261930  -0.121301
    4  O  1  Y   -0.809892   0.386147   0.173023   0.202125
    5  O  1  Z   -0.107782  -0.021942   0.020589   0.036944
    6  O  1  S    0.089305   0.111690  -0.014884   2.973834
    7  O  1  X   -0.432920  -1.117708  -0.429716   0.517411
    8  O  1  Y    1.020860  -0.544231  -0.324623  -0.915487
    9  O  1  Z    0.139089   0.022185  -0.025690  -0.155985
   10  C  2  S    0.016642  -0.002024   0.032483   0.013633
   11  C  2  S    0.848216   0.177525   0.626516  -0.091858
   12  C  2  X   -0.118007  -0.178829   0.001655   0.054008
   13  C  2  Y    0.118959  -0.096814   0.039647  -0.212916
   14  C  2  Z    0.023681   0.004092  -0.004055  -0.032594
   15  C  2  S   -0.799962   0.087578  -2.398874  -1.388027
   16  C  2  X    0.222951   1.261683   0.241405   1.378689
   17  C  2  Y    0.161915   0.521743   1.345785  -0.768687
   18  C  2  Z    0.022472  -0.017267   0.113579  -0.160636
   19  C  3  S   -0.000688  -0.009637  -0.038691  -0.008749
   20  C  3  S   -0.166049   0.496142  -1.631430  -0.029589
   21  C  3  X    0.129784   0.088977  -0.226212   0.070724
   22  C  3  Y   -0.130989   0.106664   0.043042   0.002349
   23  C  3  Z   -0.010871   0.017339  -0.000552   0.003068
   24  C  3  S    0.072494  -0.575960   5.000906   0.232640
   25  C  3  X   -0.684302  -0.666514   1.955856  -0.682214
   26  C  3  Y    0.808752   0.571821   0.011053   0.670655
   27  C  3  Z    0.034567   0.013613   0.082907   0.054251
   28  C  4  S   -0.001133  -0.004087   0.016520  -0.000330
   29  C  4  S   -0.381039  -0.339481   0.948227   0.066952
   30  C  4  X   -0.019031  -0.020196   0.020648   0.004828
   31  C  4  Y   -0.014097   0.002792  -0.048760   0.100814
   32  C  4  Z   -0.000122  -0.003386  -0.004546   0.001596
   33  C  4  S    1.232807   1.238888  -3.501910   0.486623
   34  C  4  X   -0.076557  -0.076675   0.092707  -0.232424
   35  C  4  Y    0.396588   0.432248  -1.224949  -0.046126
   36  C  4  Z    0.008298   0.019292  -0.054116  -0.022026
   37  H  5  S   -0.087975  -0.355599   0.124400  -0.076944
   38  H  5  S    0.155319  -0.487545   0.146925  -0.361665
   39  H  6  S   -0.144676  -0.100233   0.036289  -0.131141
   40  H  6  S   -0.282905  -0.098945   0.077481  -0.284467
   41  H  7  S   -0.050525  -0.087493   0.242772   0.040982
   42  H  7  S   -0.162181  -0.117522   0.471137   0.017152
   43  H  8  S    0.001749   0.000443  -0.003467  -0.041055
   44  H  8  S   -0.033814  -0.033868   0.148434  -0.121764
 ...... END OF RHF CALCULATION ......
 STEP CPU TIME =     5.54 TOTAL CPU TIME =          5.6 (      0.1 MIN)
 TOTAL WALL CLOCK TIME=          5.7 SECONDS, CPU UTILIZATION IS    97.89%

     ---------------------------------------------------------------------
     PROPERTIES FOR THE B3LYP    DFT FUNCTIONAL (RHF  TYPE) DENSITY MATRIX
     ---------------------------------------------------------------------

          -----------------
          ENERGY COMPONENTS
          -----------------

         WAVEFUNCTION NORMALIZATION =       1.0000000000

                ONE ELECTRON ENERGY =    -460.7727917015
                TWO ELECTRON ENERGY =     167.5269980556
           NUCLEAR REPULSION ENERGY =     102.5075435142
                                      ------------------
                       TOTAL ENERGY =    -190.7382501316

 ELECTRON-ELECTRON POTENTIAL ENERGY =     167.5269980556
  NUCLEUS-ELECTRON POTENTIAL ENERGY =    -650.0399297657
   NUCLEUS-NUCLEUS POTENTIAL ENERGY =     102.5075435142
                                      ------------------
             TOTAL POTENTIAL ENERGY =    -380.0053881959
               TOTAL KINETIC ENERGY =     189.2671380643
                 VIRIAL RATIO (V/T) =       2.0077726756

          ---------------------------------------
          MULLIKEN AND LOWDIN POPULATION ANALYSES
          ---------------------------------------

     ATOMIC MULLIKEN POPULATION IN EACH MOLECULAR ORBITAL

                      1          2          3          4          5

                  2.000000   2.000000   2.000000   2.000000   2.000000

    1             1.992346  -0.001739   0.000000  -0.000007   1.596869
    2             0.007823   1.993160   0.000011   0.006126   0.384558
    3            -0.000304   0.005567   0.018473   1.972840   0.032562
    4            -0.000001   0.000062   1.976196   0.018862   0.003791
    5             0.000117   0.002869   0.000001  -0.000005  -0.014338
    6             0.000019   0.000080   0.000013   0.002055  -0.003351
    7            -0.000000   0.000002   0.002638  -0.000025   0.000129
    8             0.000000  -0.000001   0.002668   0.000154  -0.000219

                      6          7          8          9         10

                  2.000000   2.000000   2.000000   2.000000   2.000000

    1             0.043232   0.145122   0.103728   0.190658   0.332368
    2             0.187795   0.607376   0.588273   0.546411   0.084976
    3             0.924301   0.345183   0.472311   0.344833   0.430762
    4             0.733132   0.610344   0.237407   0.487621   0.708349
    5             0.009751   0.069934   0.251843   0.151053   0.003288
    6             0.038127   0.013348   0.222962   0.027249   0.083738
    7             0.037004   0.077059   0.115143   0.244300   0.000142
    8             0.026658   0.131634   0.008334   0.007876   0.356376

                     11         12         13         14         15

                  2.000000   2.000000   2.000000   2.000000   2.000000

    1             1.139174   0.790738   0.287377   0.356814   1.449749
    2             0.315620   0.681141   0.316951   0.007809   0.027722
    3             0.165382   0.202647   0.355880   0.764560   0.220663
    4             0.137218   0.171255   0.374931   0.870197   0.026505
    5             0.100940   0.002138   0.012899   0.000605   0.248697
    6             0.099616   0.023579   0.262681   0.000009   0.012174
    7             0.023064   0.052077   0.240030   0.000005   0.003666
    8             0.018987   0.076424   0.149251   0.000000   0.010823

               ----- POPULATIONS IN EACH AO -----
                             MULLIKEN      LOWDIN
              1  O  1  S      1.98586     1.98057
              2  O  1  S      0.43938     0.59451
              3  O  1  X      0.80503     0.79717
              4  O  1  Y      0.75228     0.74165
              5  O  1  Z      0.55226     0.53770
              6  O  1  S      1.55208     1.05322
              7  O  1  X      0.85968     0.91800
              8  O  1  Y      0.80144     0.85457
              9  O  1  Z      0.67842     0.69391
             10  C  2  S      1.98518     1.97479
             11  C  2  S      0.42973     0.44367
             12  C  2  X      0.61540     0.56676
             13  C  2  Y      0.61320     0.58272
             14  C  2  Z      0.39097     0.37289
             15  C  2  S      0.76691     0.56040
             16  C  2  X      0.33396     0.49978
             17  C  2  Y      0.16677     0.41792
             18  C  2  Z      0.45364     0.47611
             19  C  3  S      1.98615     1.97523
             20  C  3  S      0.40396     0.43560
             21  C  3  X      0.60846     0.56816
             22  C  3  Y      0.62640     0.59424
             23  C  3  Z      0.43727     0.41626
             24  C  3  S      0.95302     0.56895
             25  C  3  X      0.43867     0.54382
             26  C  3  Y      0.25162     0.48602
             27  C  3  Z      0.55010     0.56953
             28  C  4  S      1.98528     1.97554
             29  C  4  S      0.40667     0.43229
             30  C  4  X      0.60687     0.56208
             31  C  4  Y      0.62647     0.58613
             32  C  4  Z      0.40864     0.39371
             33  C  4  S      0.98053     0.58134
             34  C  4  X      0.44381     0.54420
             35  C  4  Y      0.36689     0.51917
             36  C  4  Z      0.53071     0.54822
             37  H  5  S      0.48208     0.48156
             38  H  5  S      0.35771     0.47072
             39  H  6  S      0.47529     0.46679
             40  H  6  S      0.30701     0.42306
             41  H  7  S      0.47546     0.46433
             42  H  7  S      0.31978     0.43347
             43  H  8  S      0.47576     0.46490
             44  H  8  S      0.31321     0.42832

          ----- MULLIKEN ATOMIC OVERLAP POPULATIONS -----
          (OFF-DIAGONAL ELEMENTS NEED TO BE MULTIPLIED BY 2)

             1           2           3           4           5

    1    8.0436766
    2    0.5082456   4.8283278
    3   -0.0714603   0.1804948   5.6025924
    4    0.0032313  -0.0393801   0.3941139   5.2632789
    5   -0.0575189   0.3140159  -0.1321117   0.0158073   0.6913927
    6    0.0002686  -0.0350901   0.3726960  -0.0380645   0.0033678
    7    0.0000088  -0.0034162  -0.0518961   0.3829003   0.0049263
    8   -0.0000203   0.0025549  -0.0387689   0.3739804  -0.0000889

             6           7           8

    6    0.4799063
    7    0.0027977   0.4863592
    8   -0.0035819  -0.0264460   0.4813346

          TOTAL MULLIKEN AND LOWDIN ATOMIC POPULATIONS
       ATOM         MULL.POP.    CHARGE          LOW.POP.     CHARGE
    1 O             8.426431   -0.426431         8.171311   -0.171311
    2 C             5.755753    0.244247         5.895052    0.104948
    3 C             6.255660   -0.255660         6.157809   -0.157809
    4 C             6.355868   -0.355868         6.142690   -0.142690
    5 H             0.839791    0.160209         0.952278    0.047722
    6 H             0.782300    0.217700         0.889848    0.110152
    7 H             0.795234    0.204766         0.897798    0.102202
    8 H             0.788964    0.211036         0.893215    0.106785

          -------------------------------
          BOND ORDER AND VALENCE ANALYSIS     BOND ORDER THRESHOLD=0.050
          -------------------------------

                   BOND                       BOND                       BOND
  ATOM PAIR DIST  ORDER      ATOM PAIR DIST  ORDER      ATOM PAIR DIST  ORDER
    1   2  1.226  1.823        1   4  3.579  0.105        1   5  2.038  0.057
    2   3  1.483  0.959        2   5  1.101  0.836        3   4  1.344  1.801
    3   6  1.081  0.913        4   7  1.082  0.925        4   8  1.083  0.924

                       TOTAL       BONDED        FREE
      ATOM            VALENCE     VALENCE     VALENCE
    1 O                 2.044       2.044       0.000
    2 C                 3.616       3.616      -0.000
    3 C                 3.698       3.698       0.000
    4 C                 3.740       3.740      -0.000
    5 H                 0.911       0.911       0.000
    6 H                 0.920       0.920      -0.000
    7 H                 0.926       0.926      -0.000
    8 H                 0.922       0.922      -0.000

          ---------------------
          ELECTROSTATIC MOMENTS
          ---------------------

 POINT   1           X           Y           Z (BOHR)    CHARGE
                -0.000004    0.000004    0.000003        0.00 (A.U.)
         DX          DY          DZ         /D/  (DEBYE)
     1.107535   -2.652207   -0.327420    2.892757
 ...... END OF PROPERTY EVALUATION ......
 STEP CPU TIME =     0.01 TOTAL CPU TIME =          5.6 (      0.1 MIN)
 TOTAL WALL CLOCK TIME=          5.7 SECONDS, CPU UTILIZATION IS    97.72%

 BEGINNING ONE ELECTRON GRADIENT...
 ..... END OF 1-ELECTRON GRADIENT ......
 STEP CPU TIME =     0.01 TOTAL CPU TIME =          5.6 (      0.1 MIN)
 TOTAL WALL CLOCK TIME=          5.7 SECONDS, CPU UTILIZATION IS    97.73%

          ----------------------
          GRADIENT OF THE ENERGY
          ----------------------
 MEMORY FOR GRID POINT CONTRIBUTIONS TO THE DFT GRADIENT=    527831 WORDS.
 STEP CPU TIME =     1.19 TOTAL CPU TIME =          6.8 (      0.1 MIN)
 TOTAL WALL CLOCK TIME=          6.9 SECONDS, CPU UTILIZATION IS    97.98%
 THE COARSE/FINE SCHWARZ SCREENINGS SKIPPED         3964/        1766 BLOCKS.
 THE NUMBER OF GRADIENT INTEGRAL BLOCKS COMPUTED WAS     16317
 ...... END OF 2-ELECTRON GRADIENT ......
 STEP CPU TIME =     0.02 TOTAL CPU TIME =          6.8 (      0.1 MIN)
 TOTAL WALL CLOCK TIME=          7.0 SECONDS, CPU UTILIZATION IS    97.84%

          NSERCH=  0     ENERGY=    -190.7382501

                                 -----------------------
                                 GRADIENT (HARTREE/BOHR)
                                 -----------------------
        ATOM     ZNUC       DE/DX         DE/DY         DE/DZ
 --------------------------------------------------------------
    1  O            8.0     0.0053953    -0.0169693    -0.0008371
    2  C            6.0     0.0060552     0.0128754    -0.0005373
    3  C            6.0    -0.0172159     0.0073114     0.0013635
    4  C            6.0     0.0123129    -0.0080464     0.0004011
    5  H            1.0    -0.0038314     0.0041193    -0.0000482
    6  H            1.0     0.0025821    -0.0007347    -0.0006313
    7  H            1.0    -0.0027488    -0.0011435     0.0006030
    8  H            1.0    -0.0025496     0.0025877    -0.0003137

          MAXIMUM GRADIENT = 0.0172159    RMS GRADIENT = 0.0069237

 NSERCH:   0  E=     -190.7382501316  GRAD. MAX=  0.0172159  R.M.S.=  0.0069237

          FORCE CONSTANT MATRIX NOT UPDATED --- TAKING FIRST STEP
          MIN SEARCH, CORRECT HESSIAN, TRYING PURE NR STEP
               NR STEP HAS LENGTH         = 135.205856
          TRIM/QA LAMBDA FOR NON-TS MODES =  -0.01177877
          TRIM/QA STEP HAS LENGTH         =   0.300000
          RADIUS OF STEP TAKEN=   0.30000  CURRENT TRUST RADIUS=   0.30000

 BEGINNING GEOMETRY SEARCH POINT NSERCH=   1 ...

 COORDINATES OF ALL ATOMS ARE (ANGS)
   ATOM   CHARGE       X              Y              Z
 ------------------------------------------------------------
 O           8.0  -0.4139423155   1.7143669670   0.1162867462
 C           6.0   0.2560703163   0.6653850089   0.0945169759
 C           6.0  -0.2852639456  -0.6921345373  -0.1508963371
 C           6.0   0.4443934791  -1.8082846126  -0.1229675012
 H           1.0   1.3618586471   0.7043907967  -0.0288495443
 H           1.0  -1.3749834366  -0.7296291752  -0.1109264186
 H           1.0   1.5333709502  -1.7677256786  -0.0871167274
 H           1.0   0.0160163051  -2.8020787688  -0.1744371935

          INTERNUCLEAR DISTANCES (ANGS.)
          ------------------------------

                1 O          2 C          3 C          4 C          5 H     

   1 O       0.0000000    1.2448912 *  2.4247050 *  3.6336011    2.0480687 *
   2 C       1.2448912 *  0.0000000    1.4819345 *  2.4903426 *  1.1133322 *
   3 C       2.4247050 *  1.4819345 *  0.0000000    1.3337807 *  2.1629127 *
   4 C       3.6336011    2.4903426 *  1.3337807 *  0.0000000    2.6765908 *
   5 H       2.0480687 *  1.1133322 *  2.1629127 *  2.6765908 *  0.0000000  
   6 H       2.6359710 *  2.1560631 *  1.0910967 *  2.1151300 *  3.0908663  
   7 H       3.9947930    2.7539999 *  2.1138583 *  1.0903221 *  2.4787439 *
   8 H       4.5461706    3.4861537    2.1314757 *  1.0834126 *  3.7586987  

                6 H          7 H          8 H     

   1 O       2.6359710 *  3.9947930    4.5461706  
   2 C       2.1560631 *  2.7539999 *  3.4861537  
   3 C       1.0910967 *  2.1138583 *  2.1314757 *
   4 C       2.1151300 *  1.0903221 *  1.0834126 *
   5 H       3.0908663    2.4787439 *  3.7586987  
   6 H       0.0000000    3.0881607    2.4967902 *
   7 H       3.0881607    0.0000000    1.8384440 *
   8 H       2.4967902 *  1.8384440 *  0.0000000  

  * ... LESS THAN  3.000

 ...... END OF ONE-ELECTRON INTEGRALS ......
 STEP CPU TIME =     0.00 TOTAL CPU TIME =          6.8 (      0.1 MIN)
 TOTAL WALL CLOCK TIME=          7.0 SECONDS, CPU UTILIZATION IS    97.84%
  ...... END OF TWO-ELECTRON INTEGRALS .....
 STEP CPU TIME =     0.00 TOTAL CPU TIME =          6.8 (      0.1 MIN)
 TOTAL WALL CLOCK TIME=          7.0 SECONDS, CPU UTILIZATION IS    97.70%

          --------------------------
             R-B3LYP SCF CALCULATION
          --------------------------
         DENSITY MATRIX CONVERGENCE THRESHOLD=  1.00E-04
     COARSE -> FINE DFT GRID SWITCH THRESHOLD=  1.50E-03 (SWITCH IN $DFT)
                   HF -> DFT SWITCH THRESHOLD=  5.00E-03 (SWOFF IN $DFT)

 DIRECT SCF CALCULATION, SCHWRZ=T   FDIFF=T,  DIRTHR=  0.00E+00 NITDIR=10

 DFT CODE IS SWITCHING FROM THE FINE GRID NRAD= 96,  NLEB=  590
                      TO THE COARSE GRID NRAD0= 24, NLEB0=  110

                                                                                   NONZERO     BLOCKS
 ITER EX DEM     TOTAL ENERGY        E CHANGE  DENSITY CHANGE    DIIS ERROR      INTEGRALS    SKIPPED
          * * *   INITIATING DIIS PROCEDURE   * * *
   1  0  0     -190.7184601305  -190.7184601305   0.051520175   0.058068660         432241       3416
   2  1  0     -190.7333055015    -0.0148453710   0.017382561   0.008282122         430238       4314
   3  2  0     -190.7332848861     0.0000206154   0.015420890   0.011330912         426378       5012
   4  3  0     -190.7334943213    -0.0002094352   0.002751956   0.004822064         425063       5200
   5  4  0     -190.7335230037    -0.0000286824   0.000711062   0.001122526         421024       5599
 DFT CODE IS SWITCHING BACK TO THE FINE GRID
          * * *   INITIATING DIIS PROCEDURE   * * *
   6  5  0     -190.7334276058     0.0000953979   0.000981101   0.000652010         432240       3418
   7  6  0     -190.7334291479    -0.0000015421   0.000874465   0.000860590         420065       5637
   8  7  0     -190.7334299435    -0.0000007956   0.000333482   0.000749621         416774       5958
   9  8  0     -190.7334307171    -0.0000007736   0.000160125   0.000147708         411138       6472
  10  9  0     -190.7334307683    -0.0000000512   0.000045979   0.000026811         400107       7288
  11 10  0     -190.7334307698    -0.0000000015   0.000015006   0.000009030         390151       7912

          -----------------
          DENSITY CONVERGED
          -----------------
     TIME TO FORM FOCK OPERATORS=       4.5 SECONDS (       0.4 SEC/ITER)
     FOCK TIME ON FIRST ITERATION=       0.0, LAST ITERATION=       0.7
     TIME TO SOLVE SCF EQUATIONS=       0.0 SECONDS (       0.0 SEC/ITER)

 FINAL R-B3LYP ENERGY IS     -190.7334307698 AFTER  11 ITERATIONS
 DFT EXCHANGE + CORRELATION ENERGY =       -21.0733725691
 TOTAL ELECTRON NUMBER             =        30.0000050646
 ...... END OF RHF CALCULATION ......
 STEP CPU TIME =     4.62 TOTAL CPU TIME =         11.4 (      0.2 MIN)
 TOTAL WALL CLOCK TIME=         11.6 SECONDS, CPU UTILIZATION IS    98.11%
 ..... END OF 1-ELECTRON GRADIENT ......
 STEP CPU TIME =     0.00 TOTAL CPU TIME =         11.4 (      0.2 MIN)
 TOTAL WALL CLOCK TIME=         11.7 SECONDS, CPU UTILIZATION IS    98.03%
 MEMORY FOR GRID POINT CONTRIBUTIONS TO THE DFT GRADIENT=    527831 WORDS.
 STEP CPU TIME =     1.19 TOTAL CPU TIME =         12.6 (      0.2 MIN)
 TOTAL WALL CLOCK TIME=         12.8 SECONDS, CPU UTILIZATION IS    98.13%
 ...... END OF 2-ELECTRON GRADIENT ......
 STEP CPU TIME =     0.02 TOTAL CPU TIME =         12.6 (      0.2 MIN)
 TOTAL WALL CLOCK TIME=         12.9 SECONDS, CPU UTILIZATION IS    98.14%

          NSERCH=  1     ENERGY=    -190.7334308

                                 -----------------------
                                 GRADIENT (HARTREE/BOHR)
                                 -----------------------
        ATOM     ZNUC       DE/DX         DE/DY         DE/DZ
 --------------------------------------------------------------
    1  O            8.0    -0.0031151     0.0152789    -0.0118276
    2  C            6.0    -0.0064067    -0.0112390     0.0413543
    3  C            6.0     0.0178714    -0.0036316    -0.0282373
    4  C            6.0    -0.0100488    -0.0024546     0.0059587
    5  H            1.0     0.0001946     0.0015605    -0.0128837
    6  H            1.0    -0.0017494     0.0017200     0.0060100
    7  H            1.0     0.0009403    -0.0006700    -0.0020424
    8  H            1.0     0.0023137    -0.0005643     0.0016679

          MAXIMUM GRADIENT = 0.0413543    RMS GRADIENT = 0.0125126

 NSERCH:   1  E=     -190.7334307698  GRAD. MAX=  0.0413543  R.M.S.=  0.0125126

          HESSIAN UPDATED USING THE BFGS FORMULA
             ACTUAL ENERGY CHANGE WAS   0.0048193618
          PREDICTED ENERGY CHANGE WAS  -0.0022753478 RATIO= -2.118
          MIN SEARCH, CORRECT HESSIAN, TRYING PURE NR STEP
               NR STEP HAS LENGTH         =  61.684934
          TRIM/QA LAMBDA FOR NON-TS MODES =  -0.17656155
          TRIM/QA STEP HAS LENGTH         =   0.150000
          RADIUS OF STEP TAKEN=   0.15000  CURRENT TRUST RADIUS=   0.15000

 BEGINNING GEOMETRY SEARCH POINT NSERCH=   2 ...

 COORDINATES OF ALL ATOMS ARE (ANGS)
   ATOM   CHARGE       X              Y              Z
 ------------------------------------------------------------
 O           8.0  -0.4124077032   1.7126204991   0.1343129205
 C           6.0   0.2532454051   0.6702245196   0.0340291006
 C           6.0  -0.2889180582  -0.6942374864  -0.1104690414
 C           6.0   0.4444119099  -1.8036379613  -0.1327933663
 H           1.0   1.3655459419   0.6967932808  -0.0098580931
 H           1.0  -1.3766368608  -0.7306696280  -0.1184612628
 H           1.0   1.5339397018  -1.7652370465  -0.0853357955
 H           1.0   0.0183396635  -2.8015661773  -0.1758144620

          INTERNUCLEAR DISTANCES (ANGS.)
          ------------------------------

                1 O          2 C          3 C          4 C          5 H     

   1 O       0.0000000    1.2408627 *  2.4224230 *  3.6289887    2.0527565 *
   2 C       1.2408627 *  0.0000000    1.4753228 *  2.4868393 *  1.1134830 *
   3 C       2.4224230 *  1.4753228 *  0.0000000    1.3300529 *  2.1638716 *
   4 C       3.6289887    2.4868393 *  1.3300529 *  0.0000000    2.6675377 *
   5 H       2.0527565 *  1.1134830 *  2.1638716 *  2.6675377 *  0.0000000  
   6 H       2.6388064 *  2.1545937 *  1.0883581 *  2.1136899 *  3.0933819  
   7 H       3.9914918    2.7542511 *  2.1143515 *  1.0912368 *  2.4689363 *
   8 H       4.5452837    3.4860502    2.1306130 *  1.0859324 *  3.7524692  

                6 H          7 H          8 H     

   1 O       2.6388064 *  3.9914918    4.5452837  
   2 C       2.1545937 *  2.7542511 *  3.4860502  
   3 C       1.0883581 *  2.1143515 *  2.1306130 *
   4 C       2.1136899 *  1.0912368 *  1.0859324 *
   5 H       3.0933819    2.4689363 *  3.7524692  
   6 H       0.0000000    3.0891557    2.4975711 *
   7 H       3.0891557    0.0000000    1.8382622 *
   8 H       2.4975711 *  1.8382622 *  0.0000000  

  * ... LESS THAN  3.000

 ...... END OF ONE-ELECTRON INTEGRALS ......
 STEP CPU TIME =     0.02 TOTAL CPU TIME =         12.7 (      0.2 MIN)
 TOTAL WALL CLOCK TIME=         12.9 SECONDS, CPU UTILIZATION IS    98.21%
  ...... END OF TWO-ELECTRON INTEGRALS .....
 STEP CPU TIME =     0.00 TOTAL CPU TIME =         12.7 (      0.2 MIN)
 TOTAL WALL CLOCK TIME=         12.9 SECONDS, CPU UTILIZATION IS    98.14%

          --------------------------
             R-B3LYP SCF CALCULATION
          --------------------------
         DENSITY MATRIX CONVERGENCE THRESHOLD=  1.00E-04
     COARSE -> FINE DFT GRID SWITCH THRESHOLD=  1.50E-03 (SWITCH IN $DFT)
                   HF -> DFT SWITCH THRESHOLD=  5.00E-03 (SWOFF IN $DFT)

 DIRECT SCF CALCULATION, SCHWRZ=T   FDIFF=T,  DIRTHR=  0.00E+00 NITDIR=10

 DFT CODE IS SWITCHING FROM THE FINE GRID NRAD= 96,  NLEB=  590
                      TO THE COARSE GRID NRAD0= 24, NLEB0=  110

                                                                                   NONZERO     BLOCKS
 ITER EX DEM     TOTAL ENERGY        E CHANGE  DENSITY CHANGE    DIIS ERROR      INTEGRALS    SKIPPED
          * * *   INITIATING DIIS PROCEDURE   * * *
   1  0  0     -190.7342556005  -190.7342556005   0.029519403   0.033515825         432378       3397
   2  1  0     -190.7388853724    -0.0046297719   0.005394179   0.004253981         429513       4545
   3  2  0     -190.7389042833    -0.0000189109   0.004893166   0.004118901         424512       5246
   4  3  0     -190.7389373949    -0.0000331116   0.001357425   0.001659982         422035       5471
 DFT CODE IS SWITCHING BACK TO THE FINE GRID
          * * *   INITIATING DIIS PROCEDURE   * * *
   5  4  0     -190.7384509137     0.0004864812   0.001114240   0.001101390         432381       3395
   6  5  0     -190.7384525024    -0.0000015887   0.000959612   0.001296497         420062       5625
   7  6  0     -190.7384533827    -0.0000008802   0.000787492   0.001029697         416886       6016
   8  7  0     -190.7384544838    -0.0000011012   0.000233556   0.000122641         413492       6252
   9  8  0     -190.7384545395    -0.0000000556   0.000034097   0.000034858         402382       6996
  10  9  0     -190.7384545416    -0.0000000021   0.000011157   0.000017098         389189       7967

          -----------------
          DENSITY CONVERGED
          -----------------
     TIME TO FORM FOCK OPERATORS=       4.4 SECONDS (       0.4 SEC/ITER)
     FOCK TIME ON FIRST ITERATION=       0.1, LAST ITERATION=       0.7
     TIME TO SOLVE SCF EQUATIONS=       0.0 SECONDS (       0.0 SEC/ITER)

 FINAL R-B3LYP ENERGY IS     -190.7384545416 AFTER  10 ITERATIONS
 DFT EXCHANGE + CORRELATION ENERGY =       -21.0792935968
 TOTAL ELECTRON NUMBER             =        30.0000058399
 ...... END OF RHF CALCULATION ......
 STEP CPU TIME =     4.55 TOTAL CPU TIME =         17.2 (      0.3 MIN)
 TOTAL WALL CLOCK TIME=         17.5 SECONDS, CPU UTILIZATION IS    98.29%
 ..... END OF 1-ELECTRON GRADIENT ......
 STEP CPU TIME =     0.01 TOTAL CPU TIME =         17.2 (      0.3 MIN)
 TOTAL WALL CLOCK TIME=         17.5 SECONDS, CPU UTILIZATION IS    98.23%
 MEMORY FOR GRID POINT CONTRIBUTIONS TO THE DFT GRADIENT=    527831 WORDS.
 STEP CPU TIME =     1.19 TOTAL CPU TIME =         18.4 (      0.3 MIN)
 TOTAL WALL CLOCK TIME=         18.7 SECONDS, CPU UTILIZATION IS    98.34%
 ...... END OF 2-ELECTRON GRADIENT ......
 STEP CPU TIME =     0.03 TOTAL CPU TIME =         18.4 (      0.3 MIN)
 TOTAL WALL CLOCK TIME=         18.7 SECONDS, CPU UTILIZATION IS    98.35%

          NSERCH=  2     ENERGY=    -190.7384545

                                 -----------------------
                                 GRADIENT (HARTREE/BOHR)
                                 -----------------------
        ATOM     ZNUC       DE/DX         DE/DY         DE/DZ
 --------------------------------------------------------------
    1  O            8.0    -0.0017554     0.0117708    -0.0010807
    2  C            6.0    -0.0092767    -0.0071389     0.0083603
    3  C            6.0     0.0176307    -0.0062391    -0.0070328
    4  C            6.0    -0.0113414     0.0023675    -0.0005335
    5  H            1.0     0.0018798     0.0007542    -0.0030140
    6  H            1.0    -0.0005913     0.0019475     0.0016184
    7  H            1.0     0.0015053    -0.0012281     0.0003579
    8  H            1.0     0.0019490    -0.0022338     0.0013244

          MAXIMUM GRADIENT = 0.0176307    RMS GRADIENT = 0.0061842

 NSERCH:   2  E=     -190.7384545416  GRAD. MAX=  0.0176307  R.M.S.=  0.0061842

[...]

          ATOMIC WEIGHTS (AMU)

    1     O                15.99491
    2     C                12.00000
    3     C                12.00000
    4     C                12.00000
    5     H                 1.00782
    6     H                 1.00782
    7     H                 1.00782
    8     H                 1.00782

 MODES    1 TO    6 ARE TAKEN AS ROTATIONS AND TRANSLATIONS.

 ANALYZING SYMMETRY OF NORMAL MODES...

     FREQUENCIES IN CM**-1, IR INTENSITIES IN DEBYE**2/AMU-ANGSTROM**2,
     REDUCED MASSES IN AMU.

                            1           2           3           4           5
       FREQUENCY:         0.16        0.03        0.02        3.95       10.92  
        SYMMETRY:         A           A           A           A           A   
    REDUCED MASS:      6.98500     7.00545     7.00619     3.76187     4.72884
    IR INTENSITY:      0.00001     0.00000     0.00000     0.03393     0.07527

  1   O            X  0.00026637  0.03136844  0.13001948 -0.00216924  0.15413959
                   Y  0.10818684 -0.07628888  0.01812646 -0.00692574  0.03458153
                   Z  0.07743031  0.10526984 -0.02515850  0.13384608  0.00397283
  2   C            X  0.00031000  0.03131553  0.12993183 -0.00248579  0.05825133
                   Y  0.10822281 -0.07632867  0.01807691 -0.00571935 -0.02392467
                   Z  0.07782490  0.10543330 -0.02526878  0.10047314 -0.00002666
  3   C            X  0.00034448  0.03126820  0.12982555  0.00113850 -0.06494646
                   Y  0.10811626 -0.07625990  0.01816180  0.00756922  0.03004419
                   Z  0.07909839  0.10473518 -0.02581596 -0.11539803  0.00026545
  4   C            X  0.00038295  0.03122338  0.12973356  0.00216696 -0.16374709
                   Y  0.10812039 -0.07630578  0.01810097  0.00948481 -0.04025431
                   Z  0.07943637  0.10496181 -0.02589500 -0.13601602 -0.00441232
  5   H            X  0.00032994  0.03129495  0.12992333 -0.00596004  0.05662380
                   Y  0.10832160 -0.07642273  0.01796284 -0.01471565 -0.12498837
                   Z  0.07722830  0.10612931 -0.02495453  0.23344420 -0.00429898
  6   H            X  0.00035240  0.03127421  0.12982611  0.00290051 -0.07008101
                   Y  0.10798117 -0.07617077  0.01827579  0.01594618  0.12850478
                   Z  0.07971663  0.10402685 -0.02614135 -0.25419970  0.00444656
  7   H            X  0.00040408  0.03121753  0.12973792  0.00037202 -0.15609740
                   Y  0.10818085 -0.07639261  0.01798414  0.00098086 -0.13861908
                   Z  0.07878822  0.10567331 -0.02555923  0.00619347 -0.00854967
  8   H            X  0.00042352  0.03118736  0.12965191  0.00474955 -0.25491689
                   Y  0.10802092 -0.07625532  0.01816056  0.01937616 -0.00328781
                   Z  0.08035342  0.10445337 -0.02628969 -0.29272478 -0.00432290

 TRANS. SAYVETZ    X  0.01823150  1.75337273  7.27674251 -0.02278265 -0.00765075
                   Y  6.05984121 -4.27459602  1.01495712  0.04699607  0.00403747
                   Z  4.39336679  5.88891664 -1.42991523  0.01987381  0.00063824
               TOTAL  7.48489677  7.48504016  7.48503688  0.05588067  0.00867424

   ROT. SAYVETZ    X -0.12671200  0.02943563  0.04802108 17.94974958  0.28880813
                   Y -0.00807920 -0.00807519  0.00224453  0.14973475  1.22646114
                   Z  0.00764985 -0.00984869 -0.01858949  0.29946024-20.72444619
               TOTAL  0.12719955  0.03207276  0.05154251 17.95287183 20.76271386

                            6           7           8           9          10
       FREQUENCY:        22.91      191.65      324.09      568.65      624.58  
        SYMMETRY:         A           A           A           A           A   
    REDUCED MASS:      1.91000     3.41557     2.75173     5.01859     1.18002
    IR INTENSITY:      0.06961     0.05866     0.17444     0.11695     0.29211

  1   O            X  0.00183772 -0.00280242 -0.09803086  0.02190291 -0.00050571
                   Y  0.00596255 -0.00620106 -0.03600420  0.15236346 -0.00613204
                   Z -0.10185153  0.12062523 -0.00435250  0.00936319  0.00051483
  2   C            X -0.00284481  0.00278762  0.08448850 -0.09271819  0.00299307
                   Y -0.00437208  0.00791926  0.06648367  0.06166206 -0.00402148
                   Z  0.07446515 -0.13333436  0.00689002  0.00331255  0.02669083
  3   C            X  0.00085032  0.00211253  0.12826997  0.03978667  0.00016347
                   Y  0.00560163  0.00792132  0.05685742 -0.09067850  0.01062746
                   Z -0.09388798 -0.12415905  0.00480433 -0.00833224 -0.11038894
  4   C            X -0.00000282 -0.00153007 -0.06893211  0.03030666 -0.00144196
                   Y -0.00714067 -0.00767823 -0.08156719 -0.13046433  0.00420676
                   Z  0.11959798  0.10409688 -0.00623424 -0.00742573  0.01294880
  5   H            X -0.01080902  0.00801875  0.08085000 -0.09176975 -0.00655206
                   Y -0.02253059  0.01874368  0.21528637  0.03897252 -0.02478886
                   Z  0.38223404 -0.33473047  0.01952928  0.01741423  0.39211941
  6   H            X  0.00471403  0.00272534  0.11858442  0.04193247 -0.00510940
                   Y  0.02366919  0.01225066  0.18229658 -0.22047466 -0.01053904
                   Z -0.39664339 -0.17603567  0.00988638  0.00018926  0.29891801
  7   H            X -0.00383824 -0.00259653 -0.05084582  0.03870560  0.00402478
                   Y -0.02520633 -0.01459277 -0.33562101 -0.24019404  0.03976165
                   Z  0.42316526  0.19716996 -0.02069024 -0.03408506 -0.46550615
  8   H            X  0.00298429 -0.00378267 -0.30536353 -0.06707172 -0.00476848
                   Y -0.00020527 -0.01524685  0.01190682 -0.09732309 -0.03579995
                   Z  0.00294698  0.22583811 -0.00471392  0.01621310  0.60883252

 TRANS. SAYVETZ    X -0.00157669  0.00001553 -0.00008012  0.00002150 -0.00001613
                   Y -0.00002587 -0.00007357 -0.00015038  0.00019015  0.00005971
                   Z -0.01207978  0.00018663 -0.00005379  0.00014784  0.00013564
               TOTAL  0.01218227  0.00020120  0.00017868  0.00024182  0.00014908

   ROT. SAYVETZ    X -7.87261329 -0.00407445 -0.01805653  0.00221365  0.00378156
                   Y -6.82960572  0.01151883  0.00726394 -0.00159948 -0.01215177
                   Z -0.42095416 -0.00553697 -0.01681962 -0.00503306  0.00102358
               TOTAL 10.43066425  0.01341427  0.02572359  0.00572628  0.01276767

                           11          12          13          14          15
       FREQUENCY:       932.22     1012.57     1052.80     1063.12     1170.18  
        SYMMETRY:         A           A           A           A           A   
    REDUCED MASS:      1.83282     1.30019     1.38433     1.39653     1.93617
    IR INTENSITY:      0.80144     1.37003     0.17201     0.15938     0.59127

  1   O            X -0.02882156  0.00037103  0.00036583 -0.00060896  0.01856778
                   Y  0.01894203  0.00061391  0.00096916 -0.00209875  0.01731991
                   Z  0.00060572 -0.01253047 -0.02055914  0.03514353  0.00120656
  2   C            X  0.11237348 -0.00135369 -0.00131081  0.00271230 -0.11757306
                   Y  0.09200967 -0.00279295 -0.00414276  0.00806983 -0.08333872
                   Z  0.00737636  0.04553638  0.07918303 -0.15097608 -0.00656989
  3   C            X -0.06249788  0.00016400  0.00129201  0.00010019  0.11183260
                   Y -0.07168922 -0.00040196  0.00768564 -0.00114363  0.07019741
                   Z -0.00544806  0.00740546 -0.12165571  0.02315749  0.00588845
  4   C            X -0.04532421  0.00183323 -0.00055496  0.00012587 -0.03355453
                   Y -0.08370897  0.00902208 -0.00348786  0.00171896 -0.05757665
                   Z -0.00652920 -0.13423442  0.05479658 -0.01496957 -0.00411356
  5   H            X  0.11055742  0.00421650  0.00786298 -0.01739572 -0.12005420
                   Y  0.17844663  0.00957918  0.01662178 -0.03752609 -0.06061329
                   Z  0.01613225 -0.16919312 -0.27567844  0.63159468 -0.00844327
  6   H            X -0.07808997 -0.00175512 -0.00857963 -0.00417140  0.08980541
                   Y  0.16812560 -0.01194525 -0.04649107 -0.02366815  0.53310539
                   Z  0.01227112  0.16571568  0.68144926  0.36884619  0.03825409
  7   H            X -0.07020730 -0.00741141 -0.00147453 -0.00410303 -0.04766595
                   Y  0.38555778 -0.04310230 -0.01052318 -0.02271930  0.26074183
                   Z  0.02836122  0.63239584  0.14040476  0.33851367  0.01732693
  8   H            X  0.44097255 -0.00860175  0.00321751  0.00034306  0.25111544
                   Y -0.27797579 -0.03366608  0.02435591  0.01430004 -0.16586340
                   Z -0.01157912  0.53789529 -0.36661876 -0.19650088 -0.00902170

 TRANS. SAYVETZ    X  0.00000641 -0.00000075  0.00000053 -0.00000527  0.00000611
                   Y  0.00002176 -0.00000823 -0.00000012  0.00001435  0.00022510
                   Z  0.00001653  0.00000926  0.00000710  0.00005311  0.00017330
               TOTAL  0.00002807  0.00001241  0.00000712  0.00005526  0.00028415

   ROT. SAYVETZ    X -0.00175449 -0.00271586  0.00064711 -0.00088377 -0.00114632
                   Y  0.00125205  0.00173449  0.00187597 -0.00254889  0.00059709
                   Z  0.00353364 -0.00003957  0.00020776  0.00007668 -0.00198330
               TOTAL  0.00413914  0.00322272  0.00199529  0.00269884  0.00236729

                           16          17          18          19          20
       FREQUENCY:      1328.59     1429.12     1495.14     1687.41     1717.82  
        SYMMETRY:         A           A           A           A           A   
    REDUCED MASS:      1.40212     1.18002     1.24447     3.95228     6.88863
    IR INTENSITY:      0.04254     0.11086     0.26669     0.19638     2.94471

  1   O            X -0.00806641  0.05718659  0.02886233 -0.03122964  0.06667677
                   Y  0.01297051 -0.02888315 -0.03217027  0.05986489 -0.11186376
                   Z  0.00054550 -0.00022453 -0.00110168  0.00264251 -0.00479598
  2   C            X  0.01047616 -0.04935180 -0.02725459  0.03489682 -0.09505733
                   Y -0.00103246 -0.02600724 -0.00515869 -0.06757885  0.18909219
                   Z  0.00025122 -0.00271710 -0.00116370 -0.00289562  0.00873276
  3   C            X -0.10484832  0.00140431 -0.04229323  0.07437749  0.03947273
                   Y -0.03757416 -0.06223855  0.10949111 -0.14257189 -0.07146308
                   Z -0.00372392 -0.00422872  0.00647464 -0.00831557 -0.00395560
  4   C            X  0.11248738 -0.00344580 -0.01183295 -0.09395731 -0.03313534
                   Y -0.00900050  0.02553072 -0.00455679  0.14467689  0.04309508
                   Z  0.00079287  0.00167888 -0.00051620  0.00835280  0.00245543
  5   H            X  0.00428887 -0.05850181 -0.04213610  0.03500996 -0.08079925
                   Y -0.00544497  0.86195851  0.30542336 -0.00686388 -0.18791050
                   Z  0.00018934  0.04785681  0.01701509  0.00000498 -0.01345528
  6   H            X -0.15576894 -0.00501769 -0.03309497  0.08324686  0.02920991
                   Y  0.69591292  0.06799480 -0.19481366  0.11356170  0.13085384
                   Z  0.04387931  0.00357781 -0.01299055  0.00817765  0.00840474
  7   H            X  0.14156510 -0.02568474  0.04218753 -0.07630237 -0.02444538
                   Y -0.38408983  0.16048270 -0.54020099 -0.29265528 -0.08629102
                   Z -0.02340068  0.00986834 -0.03448336 -0.02006580 -0.00585167
  8   H            X -0.07776533 -0.20645485  0.54396244  0.27130100  0.07420870
                   Y  0.05481403  0.11467166 -0.24819754  0.01559118  0.00474975
                   Z  0.00271990  0.00496236 -0.00936910  0.00411080  0.00073780

 TRANS. SAYVETZ    X -0.00000523  0.00000217 -0.00000211 -0.00000452  0.00000928
                   Y  0.00019527 -0.00002642 -0.00034562  0.00014793 -0.00024302
                   Z  0.00013808 -0.00001083 -0.00022406  0.00013282 -0.00016410
               TOTAL  0.00023922  0.00002863  0.00041190  0.00019885  0.00029339

   ROT. SAYVETZ    X -0.00108294 -0.00198398 -0.00019857  0.00036414  0.00029403
                   Y -0.00083168 -0.00060726  0.00006798  0.00047455  0.00008906
                   Z -0.00022663 -0.00015474  0.00016062 -0.00008946  0.00037258
               TOTAL  0.00138413  0.00208059  0.00026429  0.00060481  0.00048291

                           21          22          23          24
       FREQUENCY:      2884.36     3149.95     3198.51     3242.13  
        SYMMETRY:         A           A           A           A   
    REDUCED MASS:      1.08313     1.06161     1.09234     1.11198
    IR INTENSITY:      2.47931     0.10263     0.03507     0.16078

  1   O            X -0.00017416 -0.00013197  0.00037606  0.00012714
                   Y  0.00070280  0.00052017 -0.00073594 -0.00020288
                   Z  0.00003117  0.00002490 -0.00003269 -0.00000786
  2   C            X -0.07940229 -0.00061916 -0.00133143 -0.00049678
                   Y -0.00274692 -0.00138869  0.00214446  0.00091436
                   Z -0.00218799 -0.00009362  0.00009367  0.00004158
  3   C            X -0.00014498 -0.00174285 -0.07965883 -0.02456315
                   Y  0.00227038 -0.00581839 -0.00124334  0.00090991
                   Z  0.00012541 -0.00040713 -0.00107270 -0.00024178
  4   C            X  0.00091724 -0.05474992  0.02341793 -0.05977656
                   Y -0.00102554  0.03959591  0.01155543 -0.06570816
                   Z -0.00005920  0.00189883  0.00102677 -0.00499599
  5   H            X  0.95692083  0.00956705  0.01137790  0.00669290
                   Y  0.01367289  0.00374424  0.00219422  0.00420793
                   Z  0.02552005  0.00045869  0.00048116  0.00045737
  6   H            X -0.01509752  0.05966994  0.91536864  0.25395596
                   Y  0.00211417  0.00251976  0.05144908  0.01142126
                   Z -0.00009597  0.00085722  0.01475922  0.00390134
  7   H            X -0.00819790  0.81754775 -0.17544805  0.45883886
                   Y -0.00779060  0.06632671 -0.01356590  0.02081873
                   Z -0.00066293  0.01424649 -0.00305024  0.00694025
  8   H            X  0.00536612 -0.20467918 -0.07177064  0.28862731
                   Y -0.00129216 -0.46662400 -0.17678577  0.72744871
                   Z  0.00000578 -0.03269053 -0.01228320  0.05071253

 TRANS. SAYVETZ    X -0.00000689 -0.00001103 -0.00000785 -0.00000079
                   Y -0.00002708 -0.00013048 -0.00007088  0.00002249
                   Z -0.00000215 -0.00008693 -0.00004373  0.00001679
               TOTAL  0.00002803  0.00015717  0.00008365  0.00002807

   ROT. SAYVETZ    X  0.00007621  0.00009081  0.00002895 -0.00013787
                   Y  0.00052587  0.00000181  0.00022284  0.00014460
                   Z -0.00033481  0.00043941 -0.00004150  0.00034437
               TOTAL  0.00062805  0.00044870  0.00022852  0.00039813

 REFERENCE ON SAYVETZ CONDITIONS - A. SAYVETZ, J.CHEM.PHYS., 7, 383-389(1939).

 NOTE - THE MODES J,K ARE ORTHONORMALIZED ACCORDING TO
 SUM ON I   M(I) * (X(I,J)*X(I,K) + Y(I,J)*Y(I,K) + Z(I,J)*Z(I,K)) = DELTA(J,K)

  MODE FREQ(CM**-1)  SYMMETRY  RED. MASS  IR INTENS.
     1       0.157    A        6.985001    0.000010
     2       0.034    A        7.005453    0.000000
     3       0.018    A        7.006187    0.000000
     4       3.948    A        3.761871    0.033933
     5      10.923    A        4.728841    0.075271
     6      22.913    A        1.910005    0.069605
     7     191.652    A        3.415570    0.058656
     8     324.086    A        2.751728    0.174443
     9     568.648    A        5.018593    0.116945
    10     624.582    A        1.180024    0.292106
    11     932.218    A        1.832818    0.801438
    12    1012.572    A        1.300189    1.370030
    13    1052.798    A        1.384327    0.172007
    14    1063.120    A        1.396531    0.159382
    15    1170.179    A        1.936174    0.591267
    16    1328.587    A        1.402125    0.042541
    17    1429.123    A        1.180024    0.110857
    18    1495.138    A        1.244469    0.266692
    19    1687.414    A        3.952285    0.196382
    20    1717.825    A        6.888633    2.944712
    21    2884.363    A        1.083128    2.479313
    22    3149.949    A        1.061606    0.102627
    23    3198.510    A        1.092338    0.035065
    24    3242.132    A        1.111980    0.160784

     -------------------------------
     THERMOCHEMISTRY AT T=  298.15 K
     -------------------------------

 USING IDEAL GAS, RIGID ROTOR, HARMONIC NORMAL MODE APPROXIMATIONS.
 P=  1.01325E+05 PASCAL.
 ALL FREQUENCIES ARE SCALED BY   1.00000
 THE MOMENTS OF INERTIA ARE (IN AMU*BOHR**2)
             37.52162           393.59124           431.10275
 THE ROTATIONAL SYMMETRY NUMBER IS  1.0
 THE ROTATIONAL CONSTANTS ARE (IN GHZ)
     48.05465     4.58112     4.18250
      7 -     24 VIBRATIONAL MODES ARE USED IN THERMOCHEMISTRY.
 THE HARMONIC ZERO POINT ENERGY IS (SCALED BY   1.000)
        0.061677 HARTREE/MOLECULE    13536.448750 CM**-1/MOLECULE 
       38.702688 KCAL/MOL              161.932046 KJ/MOL

               Q               LN Q
 ELEC.     1.00000E+00       0.000000
 TRANS.    1.64832E+07      16.617850
 ROT.      2.85624E+04      10.259848
 VIB.      2.44784E+00       0.895205
 TOT.      1.15244E+12      27.772903

              E         H         G         CV        CP        S
           KJ/MOL    KJ/MOL    KJ/MOL   J/MOL-K   J/MOL-K   J/MOL-K
 ELEC.      0.000     0.000     0.000     0.000     0.000     0.000
 TRANS.     3.718     6.197   -41.195    12.472    20.786   158.954
 ROT.       3.718     3.718   -25.434    12.472    12.472    97.776
 VIB.     165.808   165.808   159.713    31.882    31.882    20.442
 TOTAL    173.245   175.723    93.085    56.825    65.139   277.172
 VIB. THERMAL CORRECTION E(T)-E(0) = H(T)-H(0) =      3875.662 J/MOL

              E         H         G         CV        CP        S
         KCAL/MOL  KCAL/MOL  KCAL/MOL CAL/MOL-K CAL/MOL-K CAL/MOL-K
 ELEC.      0.000     0.000     0.000     0.000     0.000     0.000
 TRANS.     0.889     1.481    -9.846     2.981     4.968    37.991
 ROT.       0.889     0.889    -6.079     2.981     2.981    23.369
 VIB.      39.629    39.629    38.172     7.620     7.620     4.886
 TOTAL     41.406    41.999    22.248    13.581    15.569    66.246
 VIB. THERMAL CORRECTION E(T)-E(0) = H(T)-H(0) =       926.305 CAL/MOL
 ......END OF NORMAL COORDINATE ANALYSIS......
 STEP CPU TIME =     0.00 TOTAL CPU TIME =        389.7 (      6.5 MIN)
 TOTAL WALL CLOCK TIME=        395.8 SECONDS, CPU UTILIZATION IS    98.47%
                601109  WORDS OF DYNAMIC MEMORY USED
 EXECUTION OF GAMESS TERMINATED NORMALLY Fri Oct  7 21:19:10 2022
 DDI: 263640 bytes (0.3 MB / 0 MWords) used by master data server.

 ----------------------------------------
 CPU timing information for all processes
 ========================================
 0: 386.142 + 3.584 = 389.726
 ----------------------------------------
 ddikick.x: exited gracefully.
----- accounting info -----
Files used on the master node chemcompute-node-0.novalocal were:
-rw-r--r--. 1 chemcomp chemcomp      955 Oct  7 21:12 /scratch/121626/461734.F05
-rw-rw-r--. 1 chemcomp chemcomp 70451200 Oct  7 21:19 /scratch/121626/461734.F10
-rw-rw-r--. 1 chemcomp chemcomp  4140256 Oct  7 21:19 /scratch/121626/461734.F22
Fri Oct  7 21:19:13 UTC 2022
0.097u 0.042s 6:39.10 0.0%	0+0k 8+208io 0pf+0w
Finishing Up...
Looking for IR data...
Looking for Raman data...
vibramans not found
Looking for thermodynamics data...
Looking for UV-Vis data...
chemcompute.org
{'UTCtimestamp': '2022-10-07T21:19:15.631244', 'cluster': 'jetstream2', 'clusterJobNumber': '121626', 'status': 'COMPLETE', 'nodeList': 'chemcompute-node-0'}
121626
